# vtk DataFile Version 2.0
Network ETH
ASCII
DATASET POLYDATA
POINTS 49 float
1.3752345215759854 1.4590935844614477 1.7925283522348232
1.382739212007505 1.2342554443790463 1.352234823215477
1.0712945590994372 0.9128899352560329 1.4002668445630422
1.620387742338962 1.1082989994114183 1.3709139426284191
1.6028767979987497 0.7610359034726308 1.293529019346231
0.06191369606003754 1.3296056503825777 1.085390260173449
0.23952470293933714 1.180105944673337 1.2014676450967312
0.4459036898061289 1.7192466156562682 1.0320213475650435
0.7498436522826768 1.9417304296645086 0.9786524349566378
1.9380863039399627 1.1412595644496761 1.1921280853902605
1.9380863039399627 1.2825191288993523 0.7251501000667112
1.4853033145716075 1.0824014125956443 0.19946631087391598
0.7923702313946219 1.083578575632725 0.06604402935290196
0.527204502814259 1.0164802825191288 0.16077384923282192
0.8811757348342716 0.05826957033549147 1.0787191460973984
1.0725453408380239 1.0506180105944671 1.1427618412274851
0.7123202001250782 0.05826957033549147 1.4322881921280854
0.6085053158223891 0.3054738081224249 1.6137424949966646
1.9380863039399627 1.6356680400235433 0.3115410273515678
1.4302689180737964 1.7133608004708651 0.9119412941961308
1.3314571607254537 1.490876986462625 1.1187458305537026
1.0012507817385867 1.238964096527369 0.9279519679786525
0.7598499061913697 1.3743378457916418 0.7585056704469647
0.4871794871794872 1.3460859329017067 0.7478318879252835
0.762351469668543 0.6809888169511477 0.4009339559706472
0.6797998749218263 0.6009417304296645 0.8852568378919281
1.016260162601626 0.4997057092407297 1.4282855236824552
0.9299562226391497 1.5061801059446733 1.426951300867245
0.6610381488430269 1.5285462036492055 1.4336224149432957
0.38836772983114454 1.8310771041789287 1.2708472314876587
0.43714821763602263 1.9417304296645086 1.2775183455637094
0.06191369606003754 1.7062978222483811 0.9119412941961308
0.6372732958098812 1.8240141259564446 0.5783855903935957
1.3126954346466544 1.5179517363154797 0.4316210807204804
1.9380863039399627 1.4120070629782224 0.09806537691794531
0.3696060037523453 0.6633313713949381 0.8545697131420948
0.18699186991869923 0.14420247204237788 0.827885256837892
0.06191369606003754 0.1288993525603296 0.7785190126751168
1.6641651031894937 0.5550323719835196 1.4536357571714478
1.1938711694809259 0.45261918775750437 1.6217478318879255
1.0375234521575987 0.2937021777516186 1.6190793862575052
0.5071919949968731 0.6480282519128898 1.6230820547031357
0.28205128205128216 0.783402001177163 1.5523682454969983
0.3295809881175735 0.9081812831077104 1.397598398932622
1.787992495309569 0.14773396115361975 1.1827885256837893
1.6904315196998128 0.33254855797527955 1.0493662441627754
1.281425891181989 0.5326662742789875 0.2034689793195464
1.4928080050031272 0.854031783402001 0.22881921280853906
1.4940587867417139 0.40200117716303707 1.4016010673782522

LINES 50 150
2 0 1
2 1 2
2 1 3
2 3 4
2 5 6
2 6 7
2 7 8
2 9 3
2 10 11
2 11 12
2 12 13
2 14 15
2 16 17
2 18 19
2 19 20
2 20 21
2 21 22
2 22 23
2 23 13
2 13 24
2 24 25
2 25 26
2 26 2
2 1 27
2 27 28
2 28 29
2 29 30
2 31 32
2 32 33
2 33 34
2 15 21
2 25 35
2 35 36
2 36 37
2 38 39
2 39 40
2 40 17
2 17 41
2 41 42
2 42 43
2 43 2
2 4 38
2 38 44
2 44 45
2 45 46
2 46 47
2 47 11
2 45 48
2 48 26
2 12 33

CELL_DATA 50
SCALARS radii float 1
LOOKUP_TABLE default
0.0529723366686286
0.04120070629782224
0.04120070629782224
0.04120070629782224
0.04708652148322542
0.04708652148322542
0.04708652148322542
0.04120070629782224
0.03531489111241907
0.03531489111241907
0.03531489111241907
0.03531489111241907
0.03531489111241907
0.02942907592701589
0.02942907592701589
0.02942907592701589
0.02942907592701589
0.02942907592701589
0.02942907592701589
0.02942907592701589
0.02942907592701589
0.02942907592701589
0.02942907592701589
0.02942907592701589
0.02942907592701589
0.02942907592701589
0.02942907592701589
0.02942907592701589
0.02942907592701589
0.02942907592701589
0.02942907592701589
0.02354326074161271
0.02354326074161271
0.02354326074161271
0.02942907592701589
0.02942907592701589
0.02942907592701589
0.02942907592701589
0.02942907592701589
0.02942907592701589
0.02942907592701589
0.04120070629782224
0.03531489111241907
0.02942907592701589
0.02942907592701589
0.02942907592701589
0.02942907592701589
0.02942907592701589
0.02942907592701589
0.02942907592701589
SCALARS segment_data_1 float 1
LOOKUP_TABLE default
0.0075
0.0015
0.005
0.003
0.002
0.002
0.002
0.002
0.0035
0.0025
0.002
0.001
0.002
0.002
0.002
0.002
0.001
0.001
0.001
0.001
0.001
0.0015
0.0005
0.001
0.001
0.001
0.001
0.001
0.001
0.0015
0.001
0.0005
0.0005
0.0005
0.001
0.001
0.001
0.001
0.001
0.001
0.001
0.003
0.002
0.002
0.001
0.001
0.001
0.001
0.001
0.0005

POINT_DATA 49
SCALARS pressure float 1
LOOKUP_TABLE default
25.0
0.0
0.0
0.0
0.0
20.0
0.0
0.0
25.0
20.0
20.0
0.0
0.0
0.0
20.0
0.0
20.0
0.0
25.0
0.0
0.0
0.0
0.0
0.0
0.0
0.0
0.0
0.0
0.0
0.0
20.0
20.0
0.0
0.0
25.0
0.0
0.0
20.0
0.0
0.0
0.0
0.0
0.0
0.0
0.0
0.0
0.0
0.0
0.0
