# vtk DataFile Version 2.0
Network ETH
ASCII
DATASET POLYDATA
POINTS 49 float
1.3433476394849786 1.4221921515561569 1.721092564491654
1.3502145922746782 1.215426251691475 1.320485584218513
1.065236051502146 0.919891745602165 1.364188163884674
1.567668097281831 1.099594046008119 1.3374810318664645
1.5516452074391989 0.7802435723951285 1.2670713201820942
0.14163090128755365 1.3031123139377536 1.077693474962064
0.3041487839771102 1.1656292286874153 1.183308042488619
0.4929899856938484 1.6614343707713122 1.029135053110774
0.771101573676681 1.8660351826792962 0.9805766312594841
1.8583690987124462 1.1299052774018943 1.1748103186646437
1.8583690987124462 1.2598105548037888 0.7499241274658573
1.4440629470672388 1.0757780784844384 0.27162367223065254
0.8100143061516453 1.0768606224627875 0.15022761760242795
0.5673819742489271 1.0151556156968877 0.23641881638846737
0.8912732474964236 0.13396481732070364 1.0716236722306527
1.0663805436337626 1.0465493910690122 1.1298937784522003
0.7367668097281831 0.13396481732070364 1.3933232169954477
0.6417739628040058 0.3612990527740189 1.5584218512898331
1.8583690987124462 1.5845737483085247 0.3735963581183612
1.393705293276109 1.6560216508795667 0.9198786039453718
1.3032904148783977 1.451420838971583 1.10804248861912
1.0011444921316166 1.2197564276048714 0.9344461305007588
0.7802575107296138 1.3442489851150201 0.7802731411229136
0.530758226037196 1.3182679296346413 0.7705614567526555
0.7825464949928469 0.7066305818673884 0.4549317147192717
0.7070100143061516 0.6330175913396482 0.895599393019727
1.0148783977110158 0.5399188092016237 1.389681335356601
0.9359084406294708 1.4654939106901217 1.388467374810319
0.6898426323319028 1.4860622462787547 1.39453717754173
0.440343347639485 1.7642760487144789 1.246433990895296
0.4849785407725322 1.8660351826792962 1.2525037936267072
0.14163090128755365 1.6495263870094719 0.9198786039453718
0.6680972818311874 1.7577807848443838 0.6163884673748103
1.2861230329041489 1.4763193504736127 0.4828528072837634
1.8583690987124462 1.378890392422192 0.17936267071320183
0.42317596566523613 0.6903924221921516 0.8676783004552353
0.2560801144492132 0.21299052774018942 0.8433990895295904
0.14163090128755365 0.19891745602165087 0.7984825493171472
1.607725321888412 0.5907983761840325 1.4127465857359636
1.1773962804005724 0.496617050067659 1.5657056145675268
1.0343347639484979 0.3504736129905277 1.5632776934749621
0.5490701001430616 0.6763193504736129 1.566919575113809
0.34306151645207444 0.8008119079837619 1.5025796661608497
0.38655221745350504 0.9155615696887687 1.3617602427921094
1.7210300429184548 0.2162381596752368 1.1663125948406678
1.6317596566523604 0.3861975642760487 1.0449165402124432
1.257510729613734 0.5702300405953992 0.2752655538694993
1.4509298998569387 0.865764546684709 0.29833080424886194
1.4520743919885553 0.4500676589986468 1.365402124430956

LINES 50 150
2 0 1
2 1 2
2 1 3
2 3 4
2 5 6
2 6 7
2 7 8
2 9 3
2 10 11
2 11 12
2 12 13
2 14 15
2 16 17
2 18 19
2 19 20
2 20 21
2 21 22
2 22 23
2 23 13
2 13 24
2 24 25
2 25 26
2 26 2
2 1 27
2 27 28
2 28 29
2 29 30
2 31 32
2 32 33
2 33 34
2 15 21
2 25 35
2 35 36
2 36 37
2 38 39
2 39 40
2 40 17
2 17 41
2 41 42
2 42 43
2 43 2
2 4 38
2 38 44
2 44 45
2 45 46
2 46 47
2 47 11
2 45 48
2 48 26
2 12 33

CELL_DATA 50
SCALARS radii float 1
LOOKUP_TABLE default
0.3044654939106901
0.23680649526387004
0.23680649526387004
0.23680649526387004
0.27063599458728005
0.27063599458728005
0.27063599458728005
0.23680649526387004
0.20297699594046006
0.20297699594046006
0.20297699594046006
0.20297699594046006
0.20297699594046006
0.16914749661705006
0.16914749661705006
0.16914749661705006
0.16914749661705006
0.16914749661705006
0.16914749661705006
0.16914749661705006
0.16914749661705006
0.16914749661705006
0.16914749661705006
0.16914749661705006
0.16914749661705006
0.16914749661705006
0.16914749661705006
0.16914749661705006
0.16914749661705006
0.16914749661705006
0.16914749661705006
0.13531799729364002
0.13531799729364002
0.13531799729364002
0.16914749661705006
0.16914749661705006
0.16914749661705006
0.16914749661705006
0.16914749661705006
0.16914749661705006
0.16914749661705006
0.23680649526387004
0.20297699594046006
0.16914749661705006
0.16914749661705006
0.16914749661705006
0.16914749661705006
0.16914749661705006
0.16914749661705006
0.16914749661705006
SCALARS segment_data_1 float 1
LOOKUP_TABLE default
0.0075
0.0015
0.005
0.003
0.002
0.002
0.002
0.002
0.0035
0.0025
0.002
0.001
0.002
0.002
0.002
0.002
0.001
0.001
0.001
0.001
0.001
0.0015
0.0005
0.001
0.001
0.001
0.001
0.001
0.001
0.0015
0.001
0.0005
0.0005
0.0005
0.001
0.001
0.001
0.001
0.001
0.001
0.001
0.003
0.002
0.002
0.001
0.001
0.001
0.001
0.001
0.0005

POINT_DATA 49
SCALARS pressure float 1
LOOKUP_TABLE default
25.0
0.0
0.0
0.0
0.0
20.0
0.0
0.0
25.0
20.0
20.0
0.0
0.0
0.0
20.0
0.0
20.0
0.0
25.0
0.0
0.0
0.0
0.0
0.0
0.0
0.0
0.0
0.0
0.0
0.0
20.0
20.0
0.0
0.0
25.0
0.0
0.0
20.0
0.0
0.0
0.0
0.0
0.0
0.0
0.0
0.0
0.0
0.0
0.0
