# vtk DataFile Version 2.0
Network ETH
ASCII
DATASET POLYDATA
POINTS 49 float
1.3164556962025316 1.3907815631262523 1.6614699331848553
1.3227848101265824 1.1993987975951903 1.2939866369710469
1.0601265822784811 0.9258517034068136 1.3340757238307352
1.5232067510548521 1.0921843687374748 1.3095768374164813
1.508438818565401 0.7965931863727455 1.244988864142539
0.20886075949367092 1.2805611222444886 1.0712694877505569
0.35864978902953587 1.153306613226453 1.16815144766147
0.5327004219409284 1.6122244488977953 1.026726057906459
0.7890295358649789 1.8016032064128253 0.9821826280623609
1.791139240506329 1.1202404809619237 1.160356347438753
1.791139240506329 1.2404809619238475 0.7706013363028954
1.4092827004219408 1.0701402805611222 0.3318485523385301
0.8248945147679325 1.0711422845691383 0.22048997772828513
0.6012658227848102 1.0140280561122244 0.2995545657015591
0.8997890295358651 0.19839679358717435 1.0657015590200447
1.0611814345991561 1.0430861723446894 1.1191536748329622
0.7573839662447257 0.19839679358717435 1.3608017817371938
0.669831223628692 0.40881763527054105 1.512249443207127
1.791139240506329 1.541082164328657 0.42538975501113596
1.3628691983122363 1.607214428857715 0.9265033407572384
1.279535864978903 1.4178356713426852 1.099109131403118
1.0010548523206753 1.2034068136272544 0.9398663697104678
0.7974683544303799 1.318637274549098 0.7984409799554567
0.5675105485232068 1.2945891783567132 0.789532293986637
0.79957805907173 0.7284569138276552 0.5000000000000001
0.7299578059071731 0.6603206412825651 0.9042316258351895
1.0137130801687764 0.5741482965931862 1.3574610244988865
0.9409282700421943 1.4308617234468937 1.356347438752784
0.7141350210970465 1.449899799599198 1.3619153674832962
0.4841772151898735 1.7074148296593183 1.2260579064587975
0.5253164556962026 1.8016032064128253 1.2316258351893097
0.20886075949367092 1.6012024048096187 0.9265033407572384
0.6940928270042195 1.701402805611222 0.648106904231626
1.2637130801687766 1.4408817635270539 0.5256124721603564
1.791139240506329 1.350701402805611 0.24721603563474392
0.46835443037974694 0.7134268537074148 0.8786191536748331
0.3143459915611815 0.2715430861723447 0.8563474387527842
0.20886075949367092 0.25851703406813625 0.8151447661469934
1.560126582278481 0.6212424849699398 1.3786191536748331
1.1635021097046414 0.5340681362725451 1.5189309576837418
1.0316455696202533 0.39879759519038077 1.516703786191537
0.5843881856540085 0.7004008016032064 1.5200445434298444
0.39451476793248946 0.8156312625250501 1.4610244988864143
0.4345991561181435 0.9218436873747495 1.3318485523385302
1.6645569620253164 0.2745490981963928 1.1525612472160358
1.5822784810126582 0.4318637274549098 1.0412026726057908
1.2373417721518989 0.6022044088176352 0.33518930957683746
1.4156118143459917 0.875751503006012 0.356347438752784
1.4166666666666667 0.4909819639278557 1.3351893095768375

LINES 50 150
2 0 1
2 1 2
2 1 3
2 3 4
2 5 6
2 6 7
2 7 8
2 9 3
2 10 11
2 11 12
2 12 13
2 14 15
2 16 17
2 18 19
2 19 20
2 20 21
2 21 22
2 22 23
2 23 13
2 13 24
2 24 25
2 25 26
2 26 2
2 1 27
2 27 28
2 28 29
2 29 30
2 31 32
2 32 33
2 33 34
2 15 21
2 25 35
2 35 36
2 36 37
2 38 39
2 39 40
2 40 17
2 17 41
2 41 42
2 42 43
2 43 2
2 4 38
2 38 44
2 44 45
2 45 46
2 46 47
2 47 11
2 45 48
2 48 26
2 12 33

CELL_DATA 50
SCALARS radii float 1
LOOKUP_TABLE default
0.18036072144288576
0.14028056112224446
0.14028056112224446
0.14028056112224446
0.1603206412825651
0.1603206412825651
0.1603206412825651
0.14028056112224446
0.12024048096192383
0.12024048096192383
0.12024048096192383
0.12024048096192383
0.12024048096192383
0.1002004008016032
0.1002004008016032
0.1002004008016032
0.1002004008016032
0.1002004008016032
0.1002004008016032
0.1002004008016032
0.1002004008016032
0.1002004008016032
0.1002004008016032
0.1002004008016032
0.1002004008016032
0.1002004008016032
0.1002004008016032
0.1002004008016032
0.1002004008016032
0.1002004008016032
0.1002004008016032
0.08016032064128255
0.08016032064128255
0.08016032064128255
0.1002004008016032
0.1002004008016032
0.1002004008016032
0.1002004008016032
0.1002004008016032
0.1002004008016032
0.1002004008016032
0.14028056112224446
0.12024048096192383
0.1002004008016032
0.1002004008016032
0.1002004008016032
0.1002004008016032
0.1002004008016032
0.1002004008016032
0.1002004008016032
SCALARS segment_data_1 float 1
LOOKUP_TABLE default
0.0075
0.0015
0.005
0.003
0.002
0.002
0.002
0.002
0.0035
0.0025
0.002
0.001
0.002
0.002
0.002
0.002
0.001
0.001
0.001
0.001
0.001
0.0015
0.0005
0.001
0.001
0.001
0.001
0.001
0.001
0.0015
0.001
0.0005
0.0005
0.0005
0.001
0.001
0.001
0.001
0.001
0.001
0.001
0.003
0.002
0.002
0.001
0.001
0.001
0.001
0.001
0.0005

POINT_DATA 49
SCALARS pressure float 1
LOOKUP_TABLE default
25.0
0.0
0.0
0.0
0.0
20.0
0.0
0.0
25.0
20.0
20.0
0.0
0.0
0.0
20.0
0.0
20.0
0.0
25.0
0.0
0.0
0.0
0.0
0.0
0.0
0.0
0.0
0.0
0.0
0.0
20.0
20.0
0.0
0.0
25.0
0.0
0.0
20.0
0.0
0.0
0.0
0.0
0.0
0.0
0.0
0.0
0.0
0.0
0.0
