# vtk DataFile Version 2.0
Network ETH
ASCII
DATASET POLYDATA
POINTS 49 float
1.4000000000000001 1.4874999999999998 2.0
1.4080000000000001 1.2487499999999998 1.489953632148377
1.076 0.9074999999999999 1.545595054095827
1.6613333333333333 1.1149999999999998 1.5115919629057188
1.642666666666667 0.7462499999999999 1.4219474497681608
0.0 1.3499999999999996 1.1808346213292118
0.18933333333333333 1.19125 1.3153013910355487
0.4093333333333334 1.7637499999999995 1.1190108191653787
0.7333333333333334 1.9999999999999998 1.0571870170015456
2.0 1.15 1.304482225656878
2.0 1.2999999999999998 0.7635239567233385
1.5173333333333334 1.0875 0.1545595054095827
0.7786666666666667 1.0887499999999999 0.0
0.49600000000000005 1.0174999999999998 0.1097372488408037
0.8733333333333334 0.0 1.1731066460587327
1.0773333333333335 1.05375 1.2472952086553322
0.6933333333333334 0.0 1.5826893353941267
0.5826666666666667 0.26249999999999996 1.792890262751159
2.0 1.6749999999999998 0.28438948995363217
1.4586666666666668 1.7574999999999998 0.9799072642967542
1.3533333333333335 1.5212499999999998 1.2194744976816072
1.0013333333333334 1.2537499999999997 0.9984544049459041
0.744 1.3974999999999997 0.8021638330757341
0.45333333333333337 1.3675 0.7897990726429674
0.7466666666666667 0.6612499999999999 0.38794435857805254
0.6586666666666667 0.5762499999999999 0.9489953632148377
1.0173333333333334 0.4687499999999999 1.5780525502318392
0.9253333333333335 1.5374999999999999 1.5765069551777433
0.6386666666666667 1.5612499999999998 1.5842349304482226
0.34800000000000003 1.8824999999999998 1.3956723338485317
0.4 1.9999999999999998 1.4034003091190108
0.0 1.7499999999999996 0.9799072642967542
0.6133333333333334 1.8749999999999996 0.5935085007727975
1.3333333333333335 1.5499999999999998 0.4234930448222566
2.0 1.4374999999999998 0.03709428129829983
0.328 0.6425 0.9134466769706336
0.13333333333333336 0.09125 0.8825347758887172
0.0 0.075 0.8253477588871715
1.708 0.5275 1.6074188562596599
1.2066666666666668 0.41874999999999996 1.8021638330757341
1.04 0.24999999999999997 1.7990726429675425
0.4746666666666667 0.6262499999999999 1.80370942812983
0.2346666666666667 0.77 1.721792890262751
0.2853333333333333 0.9025 1.5425038639876352
1.84 0.09499999999999999 1.293663060278207
1.736 0.29124999999999995 1.1391035548686244
1.3 0.5037499999999999 0.15919629057187015
1.5253333333333334 0.845 0.18856259659969085
1.5266666666666668 0.365 1.5471406491499227

LINES 50 150
2 0 1
2 1 2
2 1 3
2 3 4
2 5 6
2 6 7
2 7 8
2 9 3
2 10 11
2 11 12
2 12 13
2 14 15
2 16 17
2 18 19
2 19 20
2 20 21
2 21 22
2 22 23
2 23 13
2 13 24
2 24 25
2 25 26
2 26 2
2 1 27
2 27 28
2 28 29
2 29 30
2 31 32
2 32 33
2 33 34
2 15 21
2 25 35
2 35 36
2 36 37
2 38 39
2 39 40
2 40 17
2 17 41
2 41 42
2 42 43
2 43 2
2 4 38
2 38 44
2 44 45
2 45 46
2 46 47
2 47 11
2 45 48
2 48 26
2 12 33

CELL_DATA 50
SCALARS radii float 1
LOOKUP_TABLE default
0.056249999999999994
0.04374999999999999
0.04374999999999999
0.04374999999999999
0.04999999999999999
0.04999999999999999
0.04999999999999999
0.04374999999999999
0.0375
0.0375
0.0375
0.0375
0.0375
0.031249999999999997
0.031249999999999997
0.031249999999999997
0.031249999999999997
0.031249999999999997
0.031249999999999997
0.031249999999999997
0.031249999999999997
0.031249999999999997
0.031249999999999997
0.031249999999999997
0.031249999999999997
0.031249999999999997
0.031249999999999997
0.031249999999999997
0.031249999999999997
0.031249999999999997
0.031249999999999997
0.024999999999999994
0.024999999999999994
0.024999999999999994
0.031249999999999997
0.031249999999999997
0.031249999999999997
0.031249999999999997
0.031249999999999997
0.031249999999999997
0.031249999999999997
0.04374999999999999
0.0375
0.031249999999999997
0.031249999999999997
0.031249999999999997
0.031249999999999997
0.031249999999999997
0.031249999999999997
0.031249999999999997
SCALARS segment_data_1 float 1
LOOKUP_TABLE default
0.0075
0.0015
0.005
0.003
0.002
0.002
0.002
0.002
0.0035
0.0025
0.002
0.001
0.002
0.002
0.002
0.002
0.001
0.001
0.001
0.001
0.001
0.0015
0.0005
0.001
0.001
0.001
0.001
0.001
0.001
0.0015
0.001
0.0005
0.0005
0.0005
0.001
0.001
0.001
0.001
0.001
0.001
0.001
0.003
0.002
0.002
0.001
0.001
0.001
0.001
0.001
0.0005

POINT_DATA 49
SCALARS pressure float 1
LOOKUP_TABLE default
25.0
0.0
0.0
0.0
0.0
20.0
0.0
0.0
25.0
20.0
20.0
0.0
0.0
0.0
20.0
0.0
20.0
0.0
25.0
0.0
0.0
0.0
0.0
0.0
0.0
0.0
0.0
0.0
0.0
0.0
20.0
20.0
0.0
0.0
25.0
0.0
0.0
20.0
0.0
0.0
0.0
0.0
0.0
0.0
0.0
0.0
0.0
0.0
0.0
