# vtk DataFile Version 2.0
Network ETH
ASCII
DATASET POLYDATA
POINTS 49 float
0.000105 0.000119 0.00014
0.0001056 9.99e-05 0.000107
8.07e-05 7.26e-05 0.0001106
0.0001246 8.92e-05 0.0001084
0.0001232 5.97e-05 0.0001026
0.0 0.000108 8.7e-05
1.42e-05 9.53e-05 9.57e-05
3.07e-05 0.0001411 8.3e-05
5.5e-05 0.00016 7.9e-05
0.00015 9.2e-05 9.5e-05
0.00015 0.000104 6e-05
0.0001138 8.7e-05 2.06e-05
5.84e-05 8.71e-05 1.06e-05
3.72e-05 8.14e-05 1.77e-05
6.55e-05 0.0 8.65e-05
8.08e-05 8.43e-05 9.13e-05
5.2e-05 0.0 0.000113
4.37e-05 2.1e-05 0.0001266
0.00015 0.000134 2.9e-05
0.0001094 0.0001406 7.4e-05
0.0001015 0.0001217 8.95e-05
7.51e-05 0.0001003 7.52e-05
5.58e-05 0.0001118 6.25e-05
3.4e-05 0.0001094 6.17e-05
5.6e-05 5.29e-05 3.57e-05
4.94e-05 4.61e-05 7.2e-05
7.63e-05 3.75e-05 0.0001127
6.94e-05 0.000123 0.0001126
4.79e-05 0.0001249 0.0001131
2.61e-05 0.0001506 0.0001009
3e-05 0.00016 0.0001014
0.0 0.00014 7.4e-05
4.6e-05 0.00015 4.9e-05
0.0001 0.000124 3.8e-05
0.00015 0.000115 1.3e-05
2.46e-05 5.14e-05 6.97e-05
1e-05 7.3e-06 6.77e-05
0.0 6e-06 6.4e-05
0.0001281 4.22e-05 0.0001146
9.05e-05 3.35e-05 0.0001272
7.8e-05 2e-05 0.000127
3.56e-05 5.01e-05 0.0001273
1.76e-05 6.16e-05 0.000122
2.14e-05 7.22e-05 0.0001104
0.000138 7.6e-06 9.43e-05
0.0001302 2.33e-05 8.43e-05
9.75e-05 4.03e-05 2.09e-05
0.0001144 6.76e-05 2.28e-05
0.0001145 2.92e-05 0.0001107

LINES 50 150
2 0 1
2 1 2
2 1 3
2 3 4
2 5 6
2 6 7
2 7 8
2 9 3
2 10 11
2 11 12
2 12 13
2 14 15
2 16 17
2 18 19
2 19 20
2 20 21
2 21 22
2 22 23
2 23 13
2 13 24
2 24 25
2 25 26
2 26 2
2 1 27
2 27 28
2 28 29
2 29 30
2 31 32
2 32 33
2 33 34
2 15 21
2 25 35
2 35 36
2 36 37
2 38 39
2 39 40
2 40 17
2 17 41
2 41 42
2 42 43
2 43 2
2 4 38
2 38 44
2 44 45
2 45 46
2 46 47
2 47 11
2 45 48
2 48 26
2 12 33

CELL_DATA 50
SCALARS radii float 1
LOOKUP_TABLE default
4.5e-06
3.5e-06
3.5e-06
3.5e-06
4e-06
4e-06
4e-06
3.5e-06
3e-06
3e-06
3e-06
3e-06
3e-06
2.5e-06
2.5e-06
2.5e-06
2.5e-06
2.5e-06
2.5e-06
2.5e-06
2.5e-06
2.5e-06
2.5e-06
2.5e-06
2.5e-06
2.5e-06
2.5e-06
2.5e-06
2.5e-06
2.5e-06
2.5e-06
2e-06
2e-06
2e-06
2.5e-06
2.5e-06
2.5e-06
2.5e-06
2.5e-06
2.5e-06
2.5e-06
3.5e-06
3e-06
2.5e-06
2.5e-06
2.5e-06
2.5e-06
2.5e-06
2.5e-06
2.5e-06
SCALARS segment_data_1 float 1
LOOKUP_TABLE default
0.0075
0.0015
0.005
0.003
0.002
0.002
0.002
0.002
0.0035
0.0025
0.002
0.001
0.002
0.002
0.002
0.002
0.001
0.001
0.001
0.001
0.001
0.0015
0.0005
0.001
0.001
0.001
0.001
0.001
0.001
0.0015
0.001
0.0005
0.0005
0.0005
0.001
0.001
0.001
0.001
0.001
0.001
0.001
0.003
0.002
0.002
0.001
0.001
0.001
0.001
0.001
0.0005

POINT_DATA 49
SCALARS pressure float 1
LOOKUP_TABLE default
25.0
0.0
0.0
0.0
0.0
20.0
0.0
0.0
25.0
20.0
20.0
0.0
0.0
0.0
20.0
0.0
20.0
0.0
25.0
0.0
0.0
0.0
0.0
0.0
0.0
0.0
0.0
0.0
0.0
0.0
20.0
20.0
0.0
0.0
25.0
0.0
0.0
20.0
0.0
0.0
0.0
0.0
0.0
0.0
0.0
0.0
0.0
0.0
0.0
