# vtk DataFile Version 2.0
Network Nutrient Transport
ASCII
DATASET POLYDATA
POINTS 34 float
1.8 1.8 0
1.8 1.8 2
0.2 0.2 0
0.2 0.2 2
1.8 1.8 1
0.2 0.2 1
1.8 1.8 0.5
1.8 1.8 1.5
0.2 0.2 0.5
0.2 0.2 1.5
1.8 1.8 0.25
1.8 1.8 1.75
0.2 0.2 0.25
0.2 0.2 1.75
1.8 1.8 0.75
1.8 1.8 1.25
0.2 0.2 0.75
0.2 0.2 1.25
1.8 1.8 0.125
1.8 1.8 1.875
0.2 0.2 0.125
0.2 0.2 1.875
1.8 1.8 0.875
1.8 1.8 1.125
0.2 0.2 0.875
0.2 0.2 1.125
1.8 1.8 0.375
1.8 1.8 0.625
1.8 1.8 1.625
1.8 1.8 1.375
0.2 0.2 0.375
0.2 0.2 0.625
0.2 0.2 1.625
0.2 0.2 1.375
 
LINES 32 96
2 0 18
2 1 19
2 2 20
2 3 21
2 4 22
2 4 23
2 5 24
2 5 25
2 6 26
2 6 27
2 7 28
2 7 29
2 8 30
2 8 31
2 9 32
2 9 33
2 10 18
2 10 26
2 11 19
2 11 28
2 12 20
2 12 30
2 13 21
2 13 32
2 14 22
2 14 27
2 15 23
2 15 29
2 16 24
2 16 31
2 17 25
2 17 33
 
CELL_DATA 32
SCALARS radii float 1
LOOKUP_TABLE default
0.1
0.1
0.1
0.1
0.1
0.1
0.1
0.1
0.1
0.1
0.1
0.1
0.1
0.1
0.1
0.1
0.1
0.1
0.1
0.1
0.1
0.1
0.1
0.1
0.1
0.1
0.1
0.1
0.1
0.1
0.1
0.1
 
POINT_DATA 34
SCALARS pressure_1d float 1
LOOKUP_TABLE default
100000
50000
10000
20000
74961.2
15037.8
87464.4
62476.9
12530.1
17526.9
93726.3
56238.9
11268.4
18765.3
81209.9
68717.2
13786.5
16284.6
96860.9
53120
10635.4
19383.1
78084.5
71839
14412.8
15661.7
90593.9
84336.7
59358.1
65596.3
11900.1
13158.9
18146.5
16906.3
SCALARS nutrient_1d float 1
LOOKUP_TABLE default
1
0.999782
0.0186478
0.017587
1.00205
0.0182836
1.00194
1.00146
0.0185692
0.0179665
1.00127
1.00058
0.0186996
0.0177854
1.00184
1.00162
0.0184247
0.0181258
1.001
0.999783
0.0187502
0.0176902
1.0021
1.00175
0.0183526
0.0182074
1.00179
1.00179
1.00091
1.00168
0.0186314
0.0184995
0.01788
0.0180456
