# vtk DataFile Version 2.0
Pressure 3D1D coupled problem
ASCII
DATASET UNSTRUCTURED_GRID
POINTS 9261 float
0 0 0
0 0 0.1
0 0 0.2
0 0 0.3
0 0 0.4
0 0 0.5
0 0 0.6
0 0 0.7
0 0 0.8
0 0 0.9
0 0 1
0 0 1.1
0 0 1.2
0 0 1.3
0 0 1.4
0 0 1.5
0 0 1.6
0 0 1.7
0 0 1.8
0 0 1.9
0 0 2
0 0.1 0
0 0.1 0.1
0 0.1 0.2
0 0.1 0.3
0 0.1 0.4
0 0.1 0.5
0 0.1 0.6
0 0.1 0.7
0 0.1 0.8
0 0.1 0.9
0 0.1 1
0 0.1 1.1
0 0.1 1.2
0 0.1 1.3
0 0.1 1.4
0 0.1 1.5
0 0.1 1.6
0 0.1 1.7
0 0.1 1.8
0 0.1 1.9
0 0.1 2
0 0.2 0
0 0.2 0.1
0 0.2 0.2
0 0.2 0.3
0 0.2 0.4
0 0.2 0.5
0 0.2 0.6
0 0.2 0.7
0 0.2 0.8
0 0.2 0.9
0 0.2 1
0 0.2 1.1
0 0.2 1.2
0 0.2 1.3
0 0.2 1.4
0 0.2 1.5
0 0.2 1.6
0 0.2 1.7
0 0.2 1.8
0 0.2 1.9
0 0.2 2
0 0.3 0
0 0.3 0.1
0 0.3 0.2
0 0.3 0.3
0 0.3 0.4
0 0.3 0.5
0 0.3 0.6
0 0.3 0.7
0 0.3 0.8
0 0.3 0.9
0 0.3 1
0 0.3 1.1
0 0.3 1.2
0 0.3 1.3
0 0.3 1.4
0 0.3 1.5
0 0.3 1.6
0 0.3 1.7
0 0.3 1.8
0 0.3 1.9
0 0.3 2
0 0.4 0
0 0.4 0.1
0 0.4 0.2
0 0.4 0.3
0 0.4 0.4
0 0.4 0.5
0 0.4 0.6
0 0.4 0.7
0 0.4 0.8
0 0.4 0.9
0 0.4 1
0 0.4 1.1
0 0.4 1.2
0 0.4 1.3
0 0.4 1.4
0 0.4 1.5
0 0.4 1.6
0 0.4 1.7
0 0.4 1.8
0 0.4 1.9
0 0.4 2
0 0.5 0
0 0.5 0.1
0 0.5 0.2
0 0.5 0.3
0 0.5 0.4
0 0.5 0.5
0 0.5 0.6
0 0.5 0.7
0 0.5 0.8
0 0.5 0.9
0 0.5 1
0 0.5 1.1
0 0.5 1.2
0 0.5 1.3
0 0.5 1.4
0 0.5 1.5
0 0.5 1.6
0 0.5 1.7
0 0.5 1.8
0 0.5 1.9
0 0.5 2
0 0.6 0
0 0.6 0.1
0 0.6 0.2
0 0.6 0.3
0 0.6 0.4
0 0.6 0.5
0 0.6 0.6
0 0.6 0.7
0 0.6 0.8
0 0.6 0.9
0 0.6 1
0 0.6 1.1
0 0.6 1.2
0 0.6 1.3
0 0.6 1.4
0 0.6 1.5
0 0.6 1.6
0 0.6 1.7
0 0.6 1.8
0 0.6 1.9
0 0.6 2
0 0.7 0
0 0.7 0.1
0 0.7 0.2
0 0.7 0.3
0 0.7 0.4
0 0.7 0.5
0 0.7 0.6
0 0.7 0.7
0 0.7 0.8
0 0.7 0.9
0 0.7 1
0 0.7 1.1
0 0.7 1.2
0 0.7 1.3
0 0.7 1.4
0 0.7 1.5
0 0.7 1.6
0 0.7 1.7
0 0.7 1.8
0 0.7 1.9
0 0.7 2
0 0.8 0
0 0.8 0.1
0 0.8 0.2
0 0.8 0.3
0 0.8 0.4
0 0.8 0.5
0 0.8 0.6
0 0.8 0.7
0 0.8 0.8
0 0.8 0.9
0 0.8 1
0 0.8 1.1
0 0.8 1.2
0 0.8 1.3
0 0.8 1.4
0 0.8 1.5
0 0.8 1.6
0 0.8 1.7
0 0.8 1.8
0 0.8 1.9
0 0.8 2
0 0.9 0
0 0.9 0.1
0 0.9 0.2
0 0.9 0.3
0 0.9 0.4
0 0.9 0.5
0 0.9 0.6
0 0.9 0.7
0 0.9 0.8
0 0.9 0.9
0 0.9 1
0 0.9 1.1
0 0.9 1.2
0 0.9 1.3
0 0.9 1.4
0 0.9 1.5
0 0.9 1.6
0 0.9 1.7
0 0.9 1.8
0 0.9 1.9
0 0.9 2
0 1 0
0 1 0.1
0 1 0.2
0 1 0.3
0 1 0.4
0 1 0.5
0 1 0.6
0 1 0.7
0 1 0.8
0 1 0.9
0 1 1
0 1 1.1
0 1 1.2
0 1 1.3
0 1 1.4
0 1 1.5
0 1 1.6
0 1 1.7
0 1 1.8
0 1 1.9
0 1 2
0 1.1 0
0 1.1 0.1
0 1.1 0.2
0 1.1 0.3
0 1.1 0.4
0 1.1 0.5
0 1.1 0.6
0 1.1 0.7
0 1.1 0.8
0 1.1 0.9
0 1.1 1
0 1.1 1.1
0 1.1 1.2
0 1.1 1.3
0 1.1 1.4
0 1.1 1.5
0 1.1 1.6
0 1.1 1.7
0 1.1 1.8
0 1.1 1.9
0 1.1 2
0 1.2 0
0 1.2 0.1
0 1.2 0.2
0 1.2 0.3
0 1.2 0.4
0 1.2 0.5
0 1.2 0.6
0 1.2 0.7
0 1.2 0.8
0 1.2 0.9
0 1.2 1
0 1.2 1.1
0 1.2 1.2
0 1.2 1.3
0 1.2 1.4
0 1.2 1.5
0 1.2 1.6
0 1.2 1.7
0 1.2 1.8
0 1.2 1.9
0 1.2 2
0 1.3 0
0 1.3 0.1
0 1.3 0.2
0 1.3 0.3
0 1.3 0.4
0 1.3 0.5
0 1.3 0.6
0 1.3 0.7
0 1.3 0.8
0 1.3 0.9
0 1.3 1
0 1.3 1.1
0 1.3 1.2
0 1.3 1.3
0 1.3 1.4
0 1.3 1.5
0 1.3 1.6
0 1.3 1.7
0 1.3 1.8
0 1.3 1.9
0 1.3 2
0 1.4 0
0 1.4 0.1
0 1.4 0.2
0 1.4 0.3
0 1.4 0.4
0 1.4 0.5
0 1.4 0.6
0 1.4 0.7
0 1.4 0.8
0 1.4 0.9
0 1.4 1
0 1.4 1.1
0 1.4 1.2
0 1.4 1.3
0 1.4 1.4
0 1.4 1.5
0 1.4 1.6
0 1.4 1.7
0 1.4 1.8
0 1.4 1.9
0 1.4 2
0 1.5 0
0 1.5 0.1
0 1.5 0.2
0 1.5 0.3
0 1.5 0.4
0 1.5 0.5
0 1.5 0.6
0 1.5 0.7
0 1.5 0.8
0 1.5 0.9
0 1.5 1
0 1.5 1.1
0 1.5 1.2
0 1.5 1.3
0 1.5 1.4
0 1.5 1.5
0 1.5 1.6
0 1.5 1.7
0 1.5 1.8
0 1.5 1.9
0 1.5 2
0 1.6 0
0 1.6 0.1
0 1.6 0.2
0 1.6 0.3
0 1.6 0.4
0 1.6 0.5
0 1.6 0.6
0 1.6 0.7
0 1.6 0.8
0 1.6 0.9
0 1.6 1
0 1.6 1.1
0 1.6 1.2
0 1.6 1.3
0 1.6 1.4
0 1.6 1.5
0 1.6 1.6
0 1.6 1.7
0 1.6 1.8
0 1.6 1.9
0 1.6 2
0 1.7 0
0 1.7 0.1
0 1.7 0.2
0 1.7 0.3
0 1.7 0.4
0 1.7 0.5
0 1.7 0.6
0 1.7 0.7
0 1.7 0.8
0 1.7 0.9
0 1.7 1
0 1.7 1.1
0 1.7 1.2
0 1.7 1.3
0 1.7 1.4
0 1.7 1.5
0 1.7 1.6
0 1.7 1.7
0 1.7 1.8
0 1.7 1.9
0 1.7 2
0 1.8 0
0 1.8 0.1
0 1.8 0.2
0 1.8 0.3
0 1.8 0.4
0 1.8 0.5
0 1.8 0.6
0 1.8 0.7
0 1.8 0.8
0 1.8 0.9
0 1.8 1
0 1.8 1.1
0 1.8 1.2
0 1.8 1.3
0 1.8 1.4
0 1.8 1.5
0 1.8 1.6
0 1.8 1.7
0 1.8 1.8
0 1.8 1.9
0 1.8 2
0 1.9 0
0 1.9 0.1
0 1.9 0.2
0 1.9 0.3
0 1.9 0.4
0 1.9 0.5
0 1.9 0.6
0 1.9 0.7
0 1.9 0.8
0 1.9 0.9
0 1.9 1
0 1.9 1.1
0 1.9 1.2
0 1.9 1.3
0 1.9 1.4
0 1.9 1.5
0 1.9 1.6
0 1.9 1.7
0 1.9 1.8
0 1.9 1.9
0 1.9 2
0 2 0
0 2 0.1
0 2 0.2
0 2 0.3
0 2 0.4
0 2 0.5
0 2 0.6
0 2 0.7
0 2 0.8
0 2 0.9
0 2 1
0 2 1.1
0 2 1.2
0 2 1.3
0 2 1.4
0 2 1.5
0 2 1.6
0 2 1.7
0 2 1.8
0 2 1.9
0 2 2
0.1 0 0
0.1 0 0.1
0.1 0 0.2
0.1 0 0.3
0.1 0 0.4
0.1 0 0.5
0.1 0 0.6
0.1 0 0.7
0.1 0 0.8
0.1 0 0.9
0.1 0 1
0.1 0 1.1
0.1 0 1.2
0.1 0 1.3
0.1 0 1.4
0.1 0 1.5
0.1 0 1.6
0.1 0 1.7
0.1 0 1.8
0.1 0 1.9
0.1 0 2
0.1 0.1 0
0.1 0.1 0.1
0.1 0.1 0.2
0.1 0.1 0.3
0.1 0.1 0.4
0.1 0.1 0.5
0.1 0.1 0.6
0.1 0.1 0.7
0.1 0.1 0.8
0.1 0.1 0.9
0.1 0.1 1
0.1 0.1 1.1
0.1 0.1 1.2
0.1 0.1 1.3
0.1 0.1 1.4
0.1 0.1 1.5
0.1 0.1 1.6
0.1 0.1 1.7
0.1 0.1 1.8
0.1 0.1 1.9
0.1 0.1 2
0.1 0.2 0
0.1 0.2 0.1
0.1 0.2 0.2
0.1 0.2 0.3
0.1 0.2 0.4
0.1 0.2 0.5
0.1 0.2 0.6
0.1 0.2 0.7
0.1 0.2 0.8
0.1 0.2 0.9
0.1 0.2 1
0.1 0.2 1.1
0.1 0.2 1.2
0.1 0.2 1.3
0.1 0.2 1.4
0.1 0.2 1.5
0.1 0.2 1.6
0.1 0.2 1.7
0.1 0.2 1.8
0.1 0.2 1.9
0.1 0.2 2
0.1 0.3 0
0.1 0.3 0.1
0.1 0.3 0.2
0.1 0.3 0.3
0.1 0.3 0.4
0.1 0.3 0.5
0.1 0.3 0.6
0.1 0.3 0.7
0.1 0.3 0.8
0.1 0.3 0.9
0.1 0.3 1
0.1 0.3 1.1
0.1 0.3 1.2
0.1 0.3 1.3
0.1 0.3 1.4
0.1 0.3 1.5
0.1 0.3 1.6
0.1 0.3 1.7
0.1 0.3 1.8
0.1 0.3 1.9
0.1 0.3 2
0.1 0.4 0
0.1 0.4 0.1
0.1 0.4 0.2
0.1 0.4 0.3
0.1 0.4 0.4
0.1 0.4 0.5
0.1 0.4 0.6
0.1 0.4 0.7
0.1 0.4 0.8
0.1 0.4 0.9
0.1 0.4 1
0.1 0.4 1.1
0.1 0.4 1.2
0.1 0.4 1.3
0.1 0.4 1.4
0.1 0.4 1.5
0.1 0.4 1.6
0.1 0.4 1.7
0.1 0.4 1.8
0.1 0.4 1.9
0.1 0.4 2
0.1 0.5 0
0.1 0.5 0.1
0.1 0.5 0.2
0.1 0.5 0.3
0.1 0.5 0.4
0.1 0.5 0.5
0.1 0.5 0.6
0.1 0.5 0.7
0.1 0.5 0.8
0.1 0.5 0.9
0.1 0.5 1
0.1 0.5 1.1
0.1 0.5 1.2
0.1 0.5 1.3
0.1 0.5 1.4
0.1 0.5 1.5
0.1 0.5 1.6
0.1 0.5 1.7
0.1 0.5 1.8
0.1 0.5 1.9
0.1 0.5 2
0.1 0.6 0
0.1 0.6 0.1
0.1 0.6 0.2
0.1 0.6 0.3
0.1 0.6 0.4
0.1 0.6 0.5
0.1 0.6 0.6
0.1 0.6 0.7
0.1 0.6 0.8
0.1 0.6 0.9
0.1 0.6 1
0.1 0.6 1.1
0.1 0.6 1.2
0.1 0.6 1.3
0.1 0.6 1.4
0.1 0.6 1.5
0.1 0.6 1.6
0.1 0.6 1.7
0.1 0.6 1.8
0.1 0.6 1.9
0.1 0.6 2
0.1 0.7 0
0.1 0.7 0.1
0.1 0.7 0.2
0.1 0.7 0.3
0.1 0.7 0.4
0.1 0.7 0.5
0.1 0.7 0.6
0.1 0.7 0.7
0.1 0.7 0.8
0.1 0.7 0.9
0.1 0.7 1
0.1 0.7 1.1
0.1 0.7 1.2
0.1 0.7 1.3
0.1 0.7 1.4
0.1 0.7 1.5
0.1 0.7 1.6
0.1 0.7 1.7
0.1 0.7 1.8
0.1 0.7 1.9
0.1 0.7 2
0.1 0.8 0
0.1 0.8 0.1
0.1 0.8 0.2
0.1 0.8 0.3
0.1 0.8 0.4
0.1 0.8 0.5
0.1 0.8 0.6
0.1 0.8 0.7
0.1 0.8 0.8
0.1 0.8 0.9
0.1 0.8 1
0.1 0.8 1.1
0.1 0.8 1.2
0.1 0.8 1.3
0.1 0.8 1.4
0.1 0.8 1.5
0.1 0.8 1.6
0.1 0.8 1.7
0.1 0.8 1.8
0.1 0.8 1.9
0.1 0.8 2
0.1 0.9 0
0.1 0.9 0.1
0.1 0.9 0.2
0.1 0.9 0.3
0.1 0.9 0.4
0.1 0.9 0.5
0.1 0.9 0.6
0.1 0.9 0.7
0.1 0.9 0.8
0.1 0.9 0.9
0.1 0.9 1
0.1 0.9 1.1
0.1 0.9 1.2
0.1 0.9 1.3
0.1 0.9 1.4
0.1 0.9 1.5
0.1 0.9 1.6
0.1 0.9 1.7
0.1 0.9 1.8
0.1 0.9 1.9
0.1 0.9 2
0.1 1 0
0.1 1 0.1
0.1 1 0.2
0.1 1 0.3
0.1 1 0.4
0.1 1 0.5
0.1 1 0.6
0.1 1 0.7
0.1 1 0.8
0.1 1 0.9
0.1 1 1
0.1 1 1.1
0.1 1 1.2
0.1 1 1.3
0.1 1 1.4
0.1 1 1.5
0.1 1 1.6
0.1 1 1.7
0.1 1 1.8
0.1 1 1.9
0.1 1 2
0.1 1.1 0
0.1 1.1 0.1
0.1 1.1 0.2
0.1 1.1 0.3
0.1 1.1 0.4
0.1 1.1 0.5
0.1 1.1 0.6
0.1 1.1 0.7
0.1 1.1 0.8
0.1 1.1 0.9
0.1 1.1 1
0.1 1.1 1.1
0.1 1.1 1.2
0.1 1.1 1.3
0.1 1.1 1.4
0.1 1.1 1.5
0.1 1.1 1.6
0.1 1.1 1.7
0.1 1.1 1.8
0.1 1.1 1.9
0.1 1.1 2
0.1 1.2 0
0.1 1.2 0.1
0.1 1.2 0.2
0.1 1.2 0.3
0.1 1.2 0.4
0.1 1.2 0.5
0.1 1.2 0.6
0.1 1.2 0.7
0.1 1.2 0.8
0.1 1.2 0.9
0.1 1.2 1
0.1 1.2 1.1
0.1 1.2 1.2
0.1 1.2 1.3
0.1 1.2 1.4
0.1 1.2 1.5
0.1 1.2 1.6
0.1 1.2 1.7
0.1 1.2 1.8
0.1 1.2 1.9
0.1 1.2 2
0.1 1.3 0
0.1 1.3 0.1
0.1 1.3 0.2
0.1 1.3 0.3
0.1 1.3 0.4
0.1 1.3 0.5
0.1 1.3 0.6
0.1 1.3 0.7
0.1 1.3 0.8
0.1 1.3 0.9
0.1 1.3 1
0.1 1.3 1.1
0.1 1.3 1.2
0.1 1.3 1.3
0.1 1.3 1.4
0.1 1.3 1.5
0.1 1.3 1.6
0.1 1.3 1.7
0.1 1.3 1.8
0.1 1.3 1.9
0.1 1.3 2
0.1 1.4 0
0.1 1.4 0.1
0.1 1.4 0.2
0.1 1.4 0.3
0.1 1.4 0.4
0.1 1.4 0.5
0.1 1.4 0.6
0.1 1.4 0.7
0.1 1.4 0.8
0.1 1.4 0.9
0.1 1.4 1
0.1 1.4 1.1
0.1 1.4 1.2
0.1 1.4 1.3
0.1 1.4 1.4
0.1 1.4 1.5
0.1 1.4 1.6
0.1 1.4 1.7
0.1 1.4 1.8
0.1 1.4 1.9
0.1 1.4 2
0.1 1.5 0
0.1 1.5 0.1
0.1 1.5 0.2
0.1 1.5 0.3
0.1 1.5 0.4
0.1 1.5 0.5
0.1 1.5 0.6
0.1 1.5 0.7
0.1 1.5 0.8
0.1 1.5 0.9
0.1 1.5 1
0.1 1.5 1.1
0.1 1.5 1.2
0.1 1.5 1.3
0.1 1.5 1.4
0.1 1.5 1.5
0.1 1.5 1.6
0.1 1.5 1.7
0.1 1.5 1.8
0.1 1.5 1.9
0.1 1.5 2
0.1 1.6 0
0.1 1.6 0.1
0.1 1.6 0.2
0.1 1.6 0.3
0.1 1.6 0.4
0.1 1.6 0.5
0.1 1.6 0.6
0.1 1.6 0.7
0.1 1.6 0.8
0.1 1.6 0.9
0.1 1.6 1
0.1 1.6 1.1
0.1 1.6 1.2
0.1 1.6 1.3
0.1 1.6 1.4
0.1 1.6 1.5
0.1 1.6 1.6
0.1 1.6 1.7
0.1 1.6 1.8
0.1 1.6 1.9
0.1 1.6 2
0.1 1.7 0
0.1 1.7 0.1
0.1 1.7 0.2
0.1 1.7 0.3
0.1 1.7 0.4
0.1 1.7 0.5
0.1 1.7 0.6
0.1 1.7 0.7
0.1 1.7 0.8
0.1 1.7 0.9
0.1 1.7 1
0.1 1.7 1.1
0.1 1.7 1.2
0.1 1.7 1.3
0.1 1.7 1.4
0.1 1.7 1.5
0.1 1.7 1.6
0.1 1.7 1.7
0.1 1.7 1.8
0.1 1.7 1.9
0.1 1.7 2
0.1 1.8 0
0.1 1.8 0.1
0.1 1.8 0.2
0.1 1.8 0.3
0.1 1.8 0.4
0.1 1.8 0.5
0.1 1.8 0.6
0.1 1.8 0.7
0.1 1.8 0.8
0.1 1.8 0.9
0.1 1.8 1
0.1 1.8 1.1
0.1 1.8 1.2
0.1 1.8 1.3
0.1 1.8 1.4
0.1 1.8 1.5
0.1 1.8 1.6
0.1 1.8 1.7
0.1 1.8 1.8
0.1 1.8 1.9
0.1 1.8 2
0.1 1.9 0
0.1 1.9 0.1
0.1 1.9 0.2
0.1 1.9 0.3
0.1 1.9 0.4
0.1 1.9 0.5
0.1 1.9 0.6
0.1 1.9 0.7
0.1 1.9 0.8
0.1 1.9 0.9
0.1 1.9 1
0.1 1.9 1.1
0.1 1.9 1.2
0.1 1.9 1.3
0.1 1.9 1.4
0.1 1.9 1.5
0.1 1.9 1.6
0.1 1.9 1.7
0.1 1.9 1.8
0.1 1.9 1.9
0.1 1.9 2
0.1 2 0
0.1 2 0.1
0.1 2 0.2
0.1 2 0.3
0.1 2 0.4
0.1 2 0.5
0.1 2 0.6
0.1 2 0.7
0.1 2 0.8
0.1 2 0.9
0.1 2 1
0.1 2 1.1
0.1 2 1.2
0.1 2 1.3
0.1 2 1.4
0.1 2 1.5
0.1 2 1.6
0.1 2 1.7
0.1 2 1.8
0.1 2 1.9
0.1 2 2
0.2 0 0
0.2 0 0.1
0.2 0 0.2
0.2 0 0.3
0.2 0 0.4
0.2 0 0.5
0.2 0 0.6
0.2 0 0.7
0.2 0 0.8
0.2 0 0.9
0.2 0 1
0.2 0 1.1
0.2 0 1.2
0.2 0 1.3
0.2 0 1.4
0.2 0 1.5
0.2 0 1.6
0.2 0 1.7
0.2 0 1.8
0.2 0 1.9
0.2 0 2
0.2 0.1 0
0.2 0.1 0.1
0.2 0.1 0.2
0.2 0.1 0.3
0.2 0.1 0.4
0.2 0.1 0.5
0.2 0.1 0.6
0.2 0.1 0.7
0.2 0.1 0.8
0.2 0.1 0.9
0.2 0.1 1
0.2 0.1 1.1
0.2 0.1 1.2
0.2 0.1 1.3
0.2 0.1 1.4
0.2 0.1 1.5
0.2 0.1 1.6
0.2 0.1 1.7
0.2 0.1 1.8
0.2 0.1 1.9
0.2 0.1 2
0.2 0.2 0
0.2 0.2 0.1
0.2 0.2 0.2
0.2 0.2 0.3
0.2 0.2 0.4
0.2 0.2 0.5
0.2 0.2 0.6
0.2 0.2 0.7
0.2 0.2 0.8
0.2 0.2 0.9
0.2 0.2 1
0.2 0.2 1.1
0.2 0.2 1.2
0.2 0.2 1.3
0.2 0.2 1.4
0.2 0.2 1.5
0.2 0.2 1.6
0.2 0.2 1.7
0.2 0.2 1.8
0.2 0.2 1.9
[...]
CELL_DATA 8000
SCALARS Phi_sigma_(3D) float 1
LOOKUP_TABLE default
0.0992931
0.0985274
0.0976873
0.0970757
0.0966019
0.0962568
0.0960277
0.0958782
0.0958166
0.0957818
0.0957763
0.0958045
0.0959067
0.096115
0.0964034
0.0967521
0.0972055
0.0978228
0.0986456
0.0993935
0.0998809
0.0987606
0.0977631
0.0971952
0.0967237
0.0963818
0.0961698
0.0960171
0.0959872
0.0959506
0.095941
0.0959485
0.0960359
0.0962592
0.0965581
0.0968837
0.0973086
0.0979087
0.0988781
0.0999681
0.102716
0.101625
0.100662
0.100138
0.0997133
0.0994253
0.0992404
0.0990847
0.0990512
0.0990249
0.0990431
0.0990519
0.0991192
0.0993191
0.099605
0.0999293
0.100321
0.100856
0.101781
0.102892
0.108036
0.107433
0.106774
0.106317
0.105982
0.105767
0.10561
0.105476
0.105419
0.105409
0.105453
0.105489
0.105557
0.105711
0.105951
0.106261
0.10661
0.107047
0.107683
0.108346
0.114145
0.113841
0.113455
0.113132
0.112883
0.112707
0.11258
0.112489
0.112446
0.112444
0.112479
0.11253
0.112613
0.11275
0.112944
0.113188
0.113469
0.113801
0.114192
0.114521
0.120222
0.120069
0.119851
0.119642
0.119469
0.119339
0.119246
0.119186
0.119161
0.119167
0.119201
0.119258
0.119343
0.119462
0.119619
0.119807
0.120021
0.120255
0.12049
0.120657
0.126054
0.125974
0.125852
0.125724
0.125611
0.125524
0.125463
0.125428
0.125419
0.125434
0.125471
0.125529
0.125609
0.125712
0.125838
0.125984
0.126142
0.126303
0.126448
0.12654
0.131605
0.131564
0.131496
0.131421
0.131354
0.131301
0.131267
0.131253
0.131258
0.131281
0.131322
0.131379
0.131452
0.131541
0.131643
0.131756
0.131873
0.131985
0.132079
0.132134
0.136884
0.136863
0.136827
0.136788
0.136752
0.136727
0.136715
0.136717
0.136734
0.136765
0.136808
0.136864
0.136931
0.137008
0.137093
0.137181
0.13727
0.13735
0.137413
0.137448
0.141897
0.141887
0.141872
0.141855
0.141842
0.141837
0.141842
0.141858
0.141885
0.141922
0.141968
0.142023
0.142085
0.142152
0.142223
0.142295
0.142363
0.142423
0.142468
0.142492
0.146637
0.146634
0.146631
0.14663
0.146633
0.146644
0.146662
0.146688
0.146723
0.146765
0.146814
0.146868
0.146926
0.146987
0.147048
0.147107
0.147162
0.147208
0.147241
0.147259
0.151083
0.151085
0.15109
0.1511
0.151115
0.151136
0.151164
0.151199
0.151241
0.151287
0.151338
0.151392
0.151447
0.151503
0.151557
0.151608
0.151653
0.15169
0.151716
0.15173
0.155203
0.155209
0.15522
0.155236
0.15526
0.15529
0.155326
0.155368
0.155414
0.155464
0.155517
0.155571
0.155624
0.155676
0.155725
0.15577
0.155809
0.15584
0.155862
0.155873
0.158958
0.158965
0.15898
0.159002
0.159032
0.159068
0.15911
0.159157
0.159208
0.159261
0.159316
0.159369
0.159422
0.159471
0.159517
0.159557
0.159592
0.159619
0.159638
0.159647
0.162299
0.162308
0.162326
0.162352
0.162387
0.162428
0.162475
0.162526
0.16258
0.162636
0.162691
0.162745
0.162797
0.162845
0.162888
0.162925
0.162957
0.162981
0.162998
0.163006
0.16518
0.16519
0.16521
0.165239
0.165277
0.165322
0.165373
0.165427
0.165484
0.165542
0.165598
0.165653
0.165703
0.16575
0.165791
0.165827
0.165856
0.165878
0.165894
0.165901
0.167554
0.167564
0.167586
0.167617
0.167658
0.167705
0.167758
0.167815
0.167874
0.167933
0.167991
0.168046
0.168096
0.168142
0.168182
0.168216
0.168243
0.168264
0.168279
0.168286
0.169377
0.169388
0.169411
0.169444
0.169486
0.169535
0.169591
0.169649
0.16971
0.16977
0.169828
0.169883
0.169933
0.169978
0.170017
0.17005
0.170077
0.170097
0.170111
0.170117
0.170615
0.170627
0.17065
0.170684
0.170727
0.170778
0.170834
0.170894
0.170955
0.171016
0.171075
0.17113
0.17118
0.171224
0.171263
0.171295
0.171321
0.171341
0.171354
0.17136
0.171241
0.171253
0.171277
0.171311
0.171355
0.171406
0.171463
0.171524
0.171586
0.171647
0.171705
0.17176
0.17181
0.171855
0.171893
0.171925
0.17195
0.17197
0.171983
0.171989
0.0999627
0.098859
0.0978708
0.0973043
0.0968361
0.096499
0.0962882
0.0961334
0.0961006
0.096065
0.0960593
0.096068
0.0961535
0.0963738
0.0966723
0.0970012
0.0974258
0.0980205
0.0989799
0.10006
0.0992552
0.0965066
0.0950067
0.094769
0.0942174
0.0938234
0.0936713
0.0934534
0.093588
0.0935051
0.0934739
0.0933965
0.0934333
0.0937556
0.0941279
0.0943608
0.0947164
0.0951714
0.0965834
0.0992082
0.10185
0.0990763
0.0975312
0.097318
0.0968123
0.0965383
0.096425
0.0961495
0.0962506
0.0961803
0.096254
0.0961688
0.0961409
0.0964101
0.096777
0.0970876
0.0974114
0.0977378
0.0991102
0.101991
0.108409
0.107445
0.106556
0.106114
0.105784
0.105657
0.105531
0.105326
0.105256
0.105249
0.105389
0.105397
0.105394
0.105521
0.105779
0.106169
0.106493
0.106831
0.107594
0.108832
0.115058
0.114684
0.114256
0.113939
0.113699
0.113539
0.113422
0.113327
0.113288
0.113289
0.113334
0.11338
0.113452
0.113585
0.113779
0.114024
0.114294
0.11461
0.115032
0.115455
0.12122
0.121055
0.120833
0.120631
0.120466
0.120342
0.120255
0.120199
0.120178
0.120186
0.120222
0.120278
0.12036
0.120478
0.120631
0.120814
0.12102
0.121247
0.121486
0.121666
0.127026
0.126947
0.126827
0.126704
0.126598
0.126515
0.126458
0.126427
0.126421
0.126438
0.126476
0.126534
0.126612
0.126714
0.126838
0.126979
0.127132
0.127288
0.12743
0.127523
0.132543
0.132503
0.132438
0.132367
0.132304
0.132256
0.132225
0.132214
0.132221
0.132246
0.132287
0.132345
0.132417
0.132505
0.132606
0.132716
0.132829
0.132938
0.133029
0.133082
0.137804
0.137784
0.137751
0.137714
0.137682
0.13766
0.13765
0.137655
0.137674
0.137706
0.137751
0.137807
0.137874
0.13795
0.138033
0.13812
0.138206
0.138284
0.138345
0.13838
0.142818
0.14281
0.142796
0.142781
0.142771
0.142769
0.142776
0.142794
0.142823
0.142861
0.142908
0.142964
0.143026
0.143093
0.143163
0.143233
0.1433
0.143358
0.143402
0.143426
0.147577
0.147575
0.147573
0.147574
0.14758
0.147592
0.147613
0.147641
0.147678
0.147721
0.147771
0.147826
0.147884
0.147945
0.148006
0.148064
0.148118
0.148163
0.148195
0.148213
0.152055
0.152058
0.152064
0.152075
0.152092
0.152116
0.152146
0.152184
0.152227
0.152275
0.152327
0.152381
0.152437
0.152493
0.152547
0.152597
0.152641
0.152678
0.152704
0.152717
0.156217
0.156222
0.156234
0.156253
0.156278
0.15631
0.156349
0.156393
0.156441
0.156493
0.156547
0.156601
0.156655
0.156708
0.156757
0.156801
0.156839
0.15687
0.156891
0.156903
0.160017
0.160025
0.160041
0.160065
0.160097
0.160135
0.16018
0.160229
0.160282
0.160337
0.160392
0.160447
0.1605
0.16055
0.160595
0.160636
0.16067
0.160696
0.160715
0.160724
0.163407
0.163416
0.163435
0.163463
0.1635
0.163543
0.163593
0.163646
0.163703
0.16376
0.163817
0.163872
0.163924
0.163972
0.164015
0.164053
0.164084
0.164108
0.164124
0.164132
0.166334
0.166345
0.166366
0.166397
0.166437
0.166484
0.166538
0.166595
0.166654
0.166713
0.166772
0.166827
0.166879
0.166925
0.166967
0.167002
0.16703
0.167052
0.167067
0.167075
0.168749
0.16876
0.168783
0.168817
0.168859
0.16891
0.168966
0.169025
0.169087
0.169148
0.169207
0.169263
0.169314
0.16936
0.1694
0.169433
0.16946
0.169481
0.169495
0.169502
0.170606
0.170618
0.170642
0.170677
0.170722
0.170774
0.170832
0.170894
0.170956
0.171019
0.171079
0.171135
0.171186
0.171231
0.17127
0.171302
0.171328
0.171348
0.171361
0.171368
0.171867
0.17188
0.171905
0.171941
0.171987
0.17204
0.1721
0.172163
0.172226
0.172289
0.17235
0.172406
0.172457
0.172501
0.17254
0.172572
0.172597
0.172616
0.172629
0.172635
0.172506
0.172519
0.172544
0.172581
0.172627
0.172681
0.172741
0.172805
0.172869
0.172933
0.172993
0.173049
0.1731
0.173145
0.173183
0.173214
0.173239
0.173258
0.17327
0.173276
0.102947
0.101929
0.100994
0.100465
0.100051
0.0997822
0.0996004
0.0994362
0.0993893
0.0993669
0.0994021
0.0994153
0.0994746
0.0996619
0.0999458
0.100287
0.100679
0.101198
0.102087
0.10316
0.102079
0.099586
0.0980612
0.0977644
0.0972879
0.0971062
0.0969991
0.0966796
0.0967123
0.0966587
0.0968222
0.0967467
0.0966768
0.0968876
0.0972466
0.097658
0.0979917
0.0982724
0.0995632
0.102375
0.10483
0.102254
0.100811
0.100615
0.100156
0.0999036
0.0998008
0.0995537
0.0996532
0.0995934
0.09966
0.0995837
0.0995641
0.0998209
0.100165
0.100448
0.100743
0.101051
0.102343
0.105013
0.111187
0.110026
0.109289
0.109025
0.108687
0.108371
0.108232
0.108171
0.10824
0.108211
0.108132
0.108139
0.108254
0.108494
0.108735
0.108868
0.109148
0.10959
0.110379
0.111326
0.117432
0.117044
0.116662
0.116399
0.116174
0.115996
0.115886
0.115825
0.115817
0.115816
0.115826
0.11587
0.115963
0.116111
0.116291
0.116481
0.116723
0.117035
0.117436
0.117799
0.123346
0.123189
0.122989
0.122811
0.122661
0.122545
0.122467
0.122424
0.122413
0.122424
0.122455
0.12251
0.122595
0.122712
0.122856
0.123021
0.123209
0.123422
0.123643
0.123805
0.128986
0.128914
0.128806
0.128698
0.128603
0.128529
0.128481
0.128457
0.128457
0.128477
0.128516
0.128574
0.128652
0.128751
0.128868
0.129
0.129142
0.129287
0.129419
0.129503
0.134406
0.13437
0.134313
0.134251
0.134196
0.134156
0.134132
0.134126
0.134138
0.134166
0.134209
0.134266
0.134338
0.134424
0.13452
0.134624
0.134731
0.134833
0.134917
0.134967
0.139626
0.139609
0.139581
0.13955
0.139525
0.139508
0.139505
0.139514
0.139537
0.139572
0.139618
0.139675
0.139742
0.139816
0.139897
0.13998
0.140062
0.140135
0.140193
0.140225
0.144647
0.14464
0.144629
0.14462
0.144615
0.144617
0.144629
0.144652
0.144684
0.144725
0.144774
0.144831
0.144893
0.144959
0.145028
0.145096
0.145159
0.145215
0.145256
0.145278
0.149447
0.149446
0.149447
0.149452
0.149462
0.149479
0.149504
0.149536
0.149576
0.149623
0.149675
0.149731
0.14979
0.14985
0.14991
0.149966
0.150018
0.150061
0.150093
0.150109
0.153993
0.153997
0.154006
0.15402
0.154041
0.154069
0.154104
0.154145
0.154192
0.154243
0.154297
0.154353
0.15441
0.154465
0.154519
0.154568
0.154611
0.154646
0.154671
0.154684
0.15824
0.158247
0.158262
0.158284
0.158313
0.158349
0.158392
0.15844
0.158493
0.158547
0.158604
0.15866
0.158715
0.158767
0.158816
0.15886
0.158897
0.158926
0.158947
0.158958
0.162137
0.162146
0.162165
0.162192
0.162228
0.162271
0.16232
0.162374
0.162431
0.162489
0.162547
0.162604
0.162658
0.162708
0.162753
0.162793
0.162826
0.162852
0.162869
0.162878
0.165626
0.165637
0.165658
0.16569
0.165731
0.165779
0.165834
0.165892
0.165953
0.166014
0.166074
0.166131
0.166184
0.166232
0.166275
0.166312
0.166342
0.166365
0.16638
0.166388
0.168648
0.168661
0.168685
0.16872
0.168764
0.168817
0.168875
0.168938
0.169001
0.169065
0.169126
0.169184
0.169236
0.169283
0.169324
0.169359
0.169386
0.169407
0.169421
0.169429
0.171149
0.171162
0.171187
0.171225
0.171273
0.171328
0.17139
0.171455
0.171521
0.171587
0.171649
0.171707
0.171759
0.171806
0.171845
0.171878
0.171904
0.171923
0.171936
0.171943
0.173075
0.173089
0.173116
0.173155
0.173205
0.173263
0.173327
0.173395
0.173463
0.173529
0.173592
0.173651
0.173703
0.173748
0.173787
0.173818
0.173843
0.173862
0.173874
0.17388
0.174386
0.1744
0.174428
0.174469
0.17452
0.17458
0.174645
0.174714
0.174783
0.17485
0.174914
0.174972
0.175025
0.17507
0.175107
0.175138
0.175162
0.17518
0.175191
0.175197
0.17505
0.175065
0.175093
0.175134
0.175186
0.175247
0.175313
0.175382
0.175452
0.17552
0.175584
0.175642
0.175694
0.175739
0.175776
0.175807
0.17583
0.175848
0.175859
0.175865
0.108348
0.107786
0.107172
0.106734
0.106403
0.106173
0.106013
0.105894
0.105845
0.105834
0.10586
0.105899
0.105979
0.106141
0.106376
0.106664
0.107007
0.107448
0.108053
0.108639
0.108826
0.107934
0.107158
0.106751
0.10642
0.106209
0.106067
0.105929
0.105898
0.105887
0.105931
0.105949
0.106004
0.10617
0.106419
0.10671
0.107031
0.10744
0.108179
0.109131
0.111059
0.109895
0.109073
0.10877
0.108444
0.108235
0.108116
0.107979
0.107993
0.107973
0.10801
0.108011
0.108059
0.108244
0.108493
0.108743
0.109027
0.109377
0.110153
0.111356
0.115843
0.115289
0.114796
0.114505
0.114254
0.114059
0.113942
0.113873
0.113871
0.113867
0.113874
0.113908
0.113997
0.114158
0.114353
0.114551
0.114807
0.115151
0.115656
0.116181
0.121138
0.120893
0.120614
0.120394
0.120212
0.120072
0.119981
0.119932
0.119922
0.119929
0.119953
0.120004
0.120092
0.120222
0.12038
0.120557
0.12077
0.121027
0.121325
0.121567
0.126522
0.126407
0.126252
0.126107
0.125984
0.125889
0.125827
0.125795
0.125791
0.125807
0.125843
0.1259
0.125982
0.126091
0.126222
0.12637
0.126536
0.126717
0.126895
0.127018
0.131868
0.131811
0.131726
0.131638
0.131561
0.131503
0.131466
0.131452
0.131459
0.131483
0.131525
0.131583
0.13166
0.131754
0.131862
0.131981
0.132108
0.132235
0.132347
0.132416
0.137138
0.13711
0.137065
0.137016
0.136974
0.136944
0.13693
0.136932
0.13695
0.136982
0.137028
0.137086
0.137157
0.137239
0.137329
0.137425
0.137522
0.137613
0.137687
0.13773
0.142308
0.142295
0.142274
0.142252
0.142236
0.142228
0.142233
0.142249
0.142277
0.142316
0.142365
0.142423
0.142489
0.142562
0.142638
0.142716
0.142791
0.142858
0.14291
0.142939
0.147349
0.147345
0.14734
0.147336
0.147339
0.147349
0.147368
0.147396
0.147434
0.147479
0.147531
0.147589
0.147651
0.147716
0.147782
0.147846
0.147906
0.147957
0.147995
0.148016
0.152222
0.152224
0.152229
0.152239
0.152256
0.152279
0.15231
0.152349
0.152394
0.152445
0.1525
0.152558
0.152617
0.152677
0.152735
0.15279
0.152838
0.152879
0.152908
0.152923
0.15688
0.156886
0.156899
0.156918
0.156945
0.15698
0.157021
0.157068
0.15712
0.157176
0.157233
0.157291
0.157349
0.157404
0.157457
0.157504
0.157545
0.157578
0.157602
0.157614
0.161266
0.161275
0.161293
0.16132
0.161355
0.161398
0.161448
0.161502
0.16156
0.16162
0.16168
0.161739
0.161795
0.161847
0.161895
0.161937
0.161973
0.162001
0.16202
0.16203
0.165315
0.165327
0.165349
0.165382
0.165424
0.165474
0.16553
0.165591
0.165654
0.165718
0.16578
0.165839
0.165894
0.165945
0.165989
0.166027
0.166059
0.166083
0.166099
0.166108
0.168961
0.168974
0.169
0.169038
0.169085
0.169141
0.169203
0.169269
0.169336
0.169403
0.169467
0.169527
0.169582
0.169631
0.169673
0.169708
0.169736
0.169757
0.169771
0.169779
0.172135
0.172149
0.172178
0.172219
0.172271
0.172332
0.172399
0.172469
0.17254
0.172609
0.172675
0.172735
0.17279
0.172837
0.172877
0.17291
0.172935
0.172954
0.172967
0.172973
0.17477
0.174785
0.174816
0.17486
0.174916
0.17498
0.175051
0.175124
0.175198
0.175269
0.175336
0.175398
0.175452
0.175498
0.175536
0.175567
0.175591
0.175608
0.17562
0.175626
0.176806
0.176823
0.176855
0.176901
0.176959
0.177027
0.1771
0.177176
0.177252
0.177325
0.177393
0.177454
0.177508
0.177554
0.177591
0.177621
0.177643
0.177659
0.17767
0.177675
0.178195
0.178212
0.178245
0.178293
0.178353
0.178422
0.178497
0.178575
0.178652
0.178726
0.178795
0.178857
0.17891
0.178955
0.178992
0.17902
0.179042
0.179057
0.179067
0.179072
0.1789
0.178917
0.17895
0.178999
0.17906
0.17913
0.179206
0.179284
0.179362
0.179437
0.179506
0.179568
0.179621
0.179666
0.179702
0.17973
0.179751
0.179766
0.179775
0.17978
0.114391
0.114106
0.113743
0.113433
0.113187
0.113007
0.112879
0.112795
0.112757
0.112753
0.112781
0.112833
0.112921
0.113061
0.113251
0.113484
0.11376
0.114087
0.114459
0.114756
0.115283
0.11493
0.11453
0.114227
0.113988
0.113816
0.113697
0.113614
0.113582
0.113581
0.113612
0.113659
0.113741
0.113881
0.11407
0.114298
0.114563
0.114884
0.115289
0.115659
0.117483
0.117097
0.116705
0.116436
0.116216
0.116058
0.115952
0.115879
0.11586
0.115862
0.115891
0.115936
0.116016
0.116154
0.116336
0.116544
0.116786
0.117082
0.11748
0.117878
0.121162
0.120917
0.120636
0.120415
0.120235
0.120099
0.120009
0.119958
0.119946
0.119953
0.119981
0.120032
0.120118
0.120245
0.120404
0.120584
0.120796
0.121051
0.121348
0.121597
0.125627
0.125491
0.125313
0.125152
0.125018
0.124916
0.124848
0.124813
0.124808
0.124823
0.124857
0.124913
0.124997
0.12511
0.125246
0.1254
0.125576
0.125772
0.125972
0.126116
0.130479
0.130406
0.130299
0.130193
0.130102
0.130032
0.129988
0.129969
0.129973
0.129996
0.130036
0.130095
0.130174
0.130273
0.130389
0.130518
0.130658
0.130802
0.130934
0.13102
0.135518
0.135479
0.135418
0.135355
0.135299
0.135259
0.135237
0.135234
0.135248
0.135279
0.135324
0.135383
0.135457
0.135544
0.135642
0.135748
0.135858
0.135963
0.136052
0.136106
0.140641
0.140621
0.14059
0.140556
0.140529
0.140513
0.140511
0.140522
0.140547
0.140585
0.140634
0.140693
0.140762
0.14084
0.140923
0.14101
0.141096
0.141174
0.141236
0.141271
0.145778
0.14577
0.145758
0.145747
0.145742
0.145745
0.145759
0.145784
0.145819
0.145863
0.145916
0.145975
0.14604
0.14611
0.146182
0.146254
0.146322
0.146381
0.146426
0.146451
0.150873
0.150873
0.150874
0.150879
0.15089
0.15091
0.150938
0.150974
0.151018
0.151069
0.151124
0.151184
0.151246
0.15131
0.151373
0.151433
0.151488
0.151534
0.151568
0.151586
0.155866
0.155871
0.155882
0.155899
0.155923
0.155955
0.155995
0.156042
0.156094
0.15615
0.156209
0.156269
0.156329
0.156388
0.156444
0.156495
0.156541
0.156578
0.156604
0.156618
0.160692
0.160701
0.160718
0.160745
0.16078
0.160823
0.160873
0.160928
0.160987
0.161049
0.161111
0.161172
0.16123
0.161285
0.161336
0.161381
0.161419
0.16145
0.161471
0.161482
0.165279
0.165291
0.165314
0.165348
0.165392
0.165444
0.165503
0.165566
0.165631
0.165698
0.165762
0.165824
0.165882
0.165934
0.165981
0.166021
0.166053
0.166079
0.166096
0.166105
0.169549
0.169563
0.169591
0.169631
0.169682
0.169742
0.169809
0.169879
0.16995
0.170021
0.170088
0.170151
0.170208
0.170258
0.170301
0.170337
0.170366
0.170387
0.170402
0.170409
0.17342
0.173436
0.173468
0.173513
0.173571
0.173638
0.173711
0.173787
0.173863
0.173937
0.174007
0.174071
0.174127
0.174176
0.174216
0.174249
0.174274
0.174292
0.174304
0.17431
0.17681
0.176827
0.176862
0.176912
0.176975
0.177047
0.177126
0.177207
0.177288
0.177365
0.177437
0.177501
0.177557
0.177604
0.177643
0.177673
0.177695
0.177711
0.177721
0.177726
0.179637
0.179656
0.179694
0.179747
0.179815
0.179892
0.179975
0.18006
0.180144
0.180224
0.180298
0.180363
0.180419
0.180464
0.180501
0.180528
0.180548
0.180562
0.180571
0.180575
0.181831
0.181851
0.181891
0.181947
0.182018
0.182098
0.182185
0.182273
0.18236
0.182442
0.182517
0.182582
0.182638
0.182683
0.182718
0.182743
0.182762
0.182774
0.182781
0.182785
0.183331
0.183352
0.183393
0.183451
0.183524
0.183607
0.183696
0.183786
0.183875
0.183958
0.184034
0.1841
0.184155
0.184199
0.184233
0.184257
0.184274
0.184285
0.184292
0.184295
0.184093
0.184114
0.184156
0.184215
0.184289
0.184373
0.184463
0.184555
0.184645
0.184729
0.184805
0.18487
0.184925
0.184969
0.185002
0.185026
0.185043
0.185053
0.185059
0.185062
0.120404
0.120259
0.120051
0.11985
0.11968
0.119549
0.119457
0.1194
0.119377
0.119382
0.119415
0.119471
0.119557
0.119678
0.119832
0.120015
0.120224
0.120453
0.120678
0.120834
0.121374
0.121217
0.121005
0.120809
0.120645
0.120521
0.120435
0.120381
0.120362
0.12037
0.120403
0.120459
0.120543
0.120661
0.120812
0.120991
0.121193
0.121417
0.121647
0.121816
0.123429
0.123274
0.123075
0.122898
0.122751
0.122639
0.122563
0.122518
0.122505
0.122517
0.122551
0.122607
0.122689
0.122804
0.122947
0.123114
0.123301
0.123509
0.123728
0.123894
0.126566
0.126452
0.126297
0.126153
0.126031
0.125939
0.125877
0.125845
0.12584
0.125856
0.125893
0.12595
0.126031
0.126139
0.12627
0.126418
0.126584
0.126763
0.126941
0.127065
0.130498
0.130424
0.130318
0.130212
0.130121
0.130052
0.130009
0.12999
0.129993
0.130016
0.130057
0.130116
0.130194
0.130293
0.130408
0.130537
0.130677
0.130821
0.130953
0.131039
0.134959
0.134915
0.134848
0.134778
0.134718
0.134673
0.134649
0.134644
0.134657
0.134687
0.134731
0.134791
0.134866
0.134955
0.135056
0.135166
0.13528
0.135392
0.135487
0.135544
0.139766
0.139741
0.139703
0.139663
0.139629
0.139608
0.139601
0.13961
0.139634
0.13967
0.139719
0.139779
0.13985
0.139931
0.140019
0.14011
0.140202
0.140288
0.140357
0.140396
0.144794
0.144782
0.144765
0.144748
0.144736
0.144735
0.144745
0.144767
0.144801
0.144844
0.144897
0.144958
0.145025
0.145098
0.145174
0.145251
0.145325
0.145391
0.145442
0.14547
0.14995
0.149948
0.149945
0.149946
0.149953
0.149968
0.149993
0.150028
0.150071
0.150121
0.150178
0.150239
0.150303
0.15037
0.150437
0.150502
0.150562
0.150613
0.150651
0.150672
0.155156
0.155159
0.155167
0.155182
0.155204
0.155234
0.155273
0.155319
0.155371
0.155427
0.155487
0.155549
0.155612
0.155673
0.155733
0.155788
0.155837
0.155878
0.155907
0.155923
0.160332
0.16034
0.160357
0.160382
0.160417
0.16046
0.16051
0.160566
0.160627
0.16069
0.160753
0.160816
0.160877
0.160935
0.160988
0.161036
0.161077
0.16111
0.161133
0.161145
0.165397
0.165408
0.165432
0.165467
0.165512
0.165567