# vtk DataFile Version 2.0
Pressure 3D1D coupled problem
ASCII
DATASET UNSTRUCTURED_GRID
POINTS 9261 float
0 0 0
0 0 0.1
0 0 0.2
0 0 0.3
0 0 0.4
0 0 0.5
0 0 0.6
0 0 0.7
0 0 0.8
0 0 0.9
0 0 1
0 0 1.1
0 0 1.2
0 0 1.3
0 0 1.4
0 0 1.5
0 0 1.6
0 0 1.7
0 0 1.8
0 0 1.9
0 0 2
0 0.1 0
0 0.1 0.1
0 0.1 0.2
0 0.1 0.3
0 0.1 0.4
0 0.1 0.5
0 0.1 0.6
0 0.1 0.7
0 0.1 0.8
0 0.1 0.9
0 0.1 1
0 0.1 1.1
0 0.1 1.2
0 0.1 1.3
0 0.1 1.4
0 0.1 1.5
0 0.1 1.6
0 0.1 1.7
0 0.1 1.8
0 0.1 1.9
0 0.1 2
0 0.2 0
0 0.2 0.1
0 0.2 0.2
0 0.2 0.3
0 0.2 0.4
0 0.2 0.5
0 0.2 0.6
0 0.2 0.7
0 0.2 0.8
0 0.2 0.9
0 0.2 1
0 0.2 1.1
0 0.2 1.2
0 0.2 1.3
0 0.2 1.4
0 0.2 1.5
0 0.2 1.6
0 0.2 1.7
0 0.2 1.8
0 0.2 1.9
0 0.2 2
0 0.3 0
0 0.3 0.1
0 0.3 0.2
0 0.3 0.3
0 0.3 0.4
0 0.3 0.5
0 0.3 0.6
0 0.3 0.7
0 0.3 0.8
0 0.3 0.9
0 0.3 1
0 0.3 1.1
0 0.3 1.2
0 0.3 1.3
0 0.3 1.4
0 0.3 1.5
0 0.3 1.6
0 0.3 1.7
0 0.3 1.8
0 0.3 1.9
0 0.3 2
0 0.4 0
0 0.4 0.1
0 0.4 0.2
0 0.4 0.3
0 0.4 0.4
0 0.4 0.5
0 0.4 0.6
0 0.4 0.7
0 0.4 0.8
0 0.4 0.9
0 0.4 1
0 0.4 1.1
0 0.4 1.2
0 0.4 1.3
0 0.4 1.4
0 0.4 1.5
0 0.4 1.6
0 0.4 1.7
0 0.4 1.8
0 0.4 1.9
0 0.4 2
0 0.5 0
0 0.5 0.1
0 0.5 0.2
0 0.5 0.3
0 0.5 0.4
0 0.5 0.5
0 0.5 0.6
0 0.5 0.7
0 0.5 0.8
0 0.5 0.9
0 0.5 1
0 0.5 1.1
0 0.5 1.2
0 0.5 1.3
0 0.5 1.4
0 0.5 1.5
0 0.5 1.6
0 0.5 1.7
0 0.5 1.8
0 0.5 1.9
0 0.5 2
0 0.6 0
0 0.6 0.1
0 0.6 0.2
0 0.6 0.3
0 0.6 0.4
0 0.6 0.5
0 0.6 0.6
0 0.6 0.7
0 0.6 0.8
0 0.6 0.9
0 0.6 1
0 0.6 1.1
0 0.6 1.2
0 0.6 1.3
0 0.6 1.4
0 0.6 1.5
0 0.6 1.6
0 0.6 1.7
0 0.6 1.8
0 0.6 1.9
0 0.6 2
0 0.7 0
0 0.7 0.1
0 0.7 0.2
0 0.7 0.3
0 0.7 0.4
0 0.7 0.5
0 0.7 0.6
0 0.7 0.7
0 0.7 0.8
0 0.7 0.9
0 0.7 1
0 0.7 1.1
0 0.7 1.2
0 0.7 1.3
0 0.7 1.4
0 0.7 1.5
0 0.7 1.6
0 0.7 1.7
0 0.7 1.8
0 0.7 1.9
0 0.7 2
0 0.8 0
0 0.8 0.1
0 0.8 0.2
0 0.8 0.3
0 0.8 0.4
0 0.8 0.5
0 0.8 0.6
0 0.8 0.7
0 0.8 0.8
0 0.8 0.9
0 0.8 1
0 0.8 1.1
0 0.8 1.2
0 0.8 1.3
0 0.8 1.4
0 0.8 1.5
0 0.8 1.6
0 0.8 1.7
0 0.8 1.8
0 0.8 1.9
0 0.8 2
0 0.9 0
0 0.9 0.1
0 0.9 0.2
0 0.9 0.3
0 0.9 0.4
0 0.9 0.5
0 0.9 0.6
0 0.9 0.7
0 0.9 0.8
0 0.9 0.9
0 0.9 1
0 0.9 1.1
0 0.9 1.2
0 0.9 1.3
0 0.9 1.4
0 0.9 1.5
0 0.9 1.6
0 0.9 1.7
0 0.9 1.8
0 0.9 1.9
0 0.9 2
0 1 0
0 1 0.1
0 1 0.2
0 1 0.3
0 1 0.4
0 1 0.5
0 1 0.6
0 1 0.7
0 1 0.8
0 1 0.9
0 1 1
0 1 1.1
0 1 1.2
0 1 1.3
0 1 1.4
0 1 1.5
0 1 1.6
0 1 1.7
0 1 1.8
0 1 1.9
0 1 2
0 1.1 0
0 1.1 0.1
0 1.1 0.2
0 1.1 0.3
0 1.1 0.4
0 1.1 0.5
0 1.1 0.6
0 1.1 0.7
0 1.1 0.8
0 1.1 0.9
0 1.1 1
0 1.1 1.1
0 1.1 1.2
0 1.1 1.3
0 1.1 1.4
0 1.1 1.5
0 1.1 1.6
0 1.1 1.7
0 1.1 1.8
0 1.1 1.9
0 1.1 2
0 1.2 0
0 1.2 0.1
0 1.2 0.2
0 1.2 0.3
0 1.2 0.4
0 1.2 0.5
0 1.2 0.6
0 1.2 0.7
0 1.2 0.8
0 1.2 0.9
0 1.2 1
0 1.2 1.1
0 1.2 1.2
0 1.2 1.3
0 1.2 1.4
0 1.2 1.5
0 1.2 1.6
0 1.2 1.7
0 1.2 1.8
0 1.2 1.9
0 1.2 2
0 1.3 0
0 1.3 0.1
0 1.3 0.2
0 1.3 0.3
0 1.3 0.4
0 1.3 0.5
0 1.3 0.6
0 1.3 0.7
0 1.3 0.8
0 1.3 0.9
0 1.3 1
0 1.3 1.1
0 1.3 1.2
0 1.3 1.3
0 1.3 1.4
0 1.3 1.5
0 1.3 1.6
0 1.3 1.7
0 1.3 1.8
0 1.3 1.9
0 1.3 2
0 1.4 0
0 1.4 0.1
0 1.4 0.2
0 1.4 0.3
0 1.4 0.4
0 1.4 0.5
0 1.4 0.6
0 1.4 0.7
0 1.4 0.8
0 1.4 0.9
0 1.4 1
0 1.4 1.1
0 1.4 1.2
0 1.4 1.3
0 1.4 1.4
0 1.4 1.5
0 1.4 1.6
0 1.4 1.7
0 1.4 1.8
0 1.4 1.9
0 1.4 2
0 1.5 0
0 1.5 0.1
0 1.5 0.2
0 1.5 0.3
0 1.5 0.4
0 1.5 0.5
0 1.5 0.6
0 1.5 0.7
0 1.5 0.8
0 1.5 0.9
0 1.5 1
0 1.5 1.1
0 1.5 1.2
0 1.5 1.3
0 1.5 1.4
0 1.5 1.5
0 1.5 1.6
0 1.5 1.7
0 1.5 1.8
0 1.5 1.9
0 1.5 2
0 1.6 0
0 1.6 0.1
0 1.6 0.2
0 1.6 0.3
0 1.6 0.4
0 1.6 0.5
0 1.6 0.6
0 1.6 0.7
0 1.6 0.8
0 1.6 0.9
0 1.6 1
0 1.6 1.1
0 1.6 1.2
0 1.6 1.3
0 1.6 1.4
0 1.6 1.5
0 1.6 1.6
0 1.6 1.7
0 1.6 1.8
0 1.6 1.9
0 1.6 2
0 1.7 0
0 1.7 0.1
0 1.7 0.2
0 1.7 0.3
0 1.7 0.4
0 1.7 0.5
0 1.7 0.6
0 1.7 0.7
0 1.7 0.8
0 1.7 0.9
0 1.7 1
0 1.7 1.1
0 1.7 1.2
0 1.7 1.3
0 1.7 1.4
0 1.7 1.5
0 1.7 1.6
0 1.7 1.7
0 1.7 1.8
0 1.7 1.9
0 1.7 2
0 1.8 0
0 1.8 0.1
0 1.8 0.2
0 1.8 0.3
0 1.8 0.4
0 1.8 0.5
0 1.8 0.6
0 1.8 0.7
0 1.8 0.8
0 1.8 0.9
0 1.8 1
0 1.8 1.1
0 1.8 1.2
0 1.8 1.3
0 1.8 1.4
0 1.8 1.5
0 1.8 1.6
0 1.8 1.7
0 1.8 1.8
0 1.8 1.9
0 1.8 2
0 1.9 0
0 1.9 0.1
0 1.9 0.2
0 1.9 0.3
0 1.9 0.4
0 1.9 0.5
0 1.9 0.6
0 1.9 0.7
0 1.9 0.8
0 1.9 0.9
0 1.9 1
0 1.9 1.1
0 1.9 1.2
0 1.9 1.3
0 1.9 1.4
0 1.9 1.5
0 1.9 1.6
0 1.9 1.7
0 1.9 1.8
0 1.9 1.9
0 1.9 2
0 2 0
0 2 0.1
0 2 0.2
0 2 0.3
0 2 0.4
0 2 0.5
0 2 0.6
0 2 0.7
0 2 0.8
0 2 0.9
0 2 1
0 2 1.1
0 2 1.2
0 2 1.3
0 2 1.4
0 2 1.5
0 2 1.6
0 2 1.7
0 2 1.8
0 2 1.9
0 2 2
0.1 0 0
0.1 0 0.1
0.1 0 0.2
0.1 0 0.3
0.1 0 0.4
0.1 0 0.5
0.1 0 0.6
0.1 0 0.7
0.1 0 0.8
0.1 0 0.9
0.1 0 1
0.1 0 1.1
0.1 0 1.2
0.1 0 1.3
0.1 0 1.4
0.1 0 1.5
0.1 0 1.6
0.1 0 1.7
0.1 0 1.8
0.1 0 1.9
0.1 0 2
0.1 0.1 0
0.1 0.1 0.1
0.1 0.1 0.2
0.1 0.1 0.3
0.1 0.1 0.4
0.1 0.1 0.5
0.1 0.1 0.6
0.1 0.1 0.7
0.1 0.1 0.8
0.1 0.1 0.9
0.1 0.1 1
0.1 0.1 1.1
0.1 0.1 1.2
0.1 0.1 1.3
0.1 0.1 1.4
0.1 0.1 1.5
0.1 0.1 1.6
0.1 0.1 1.7
0.1 0.1 1.8
0.1 0.1 1.9
0.1 0.1 2
0.1 0.2 0
0.1 0.2 0.1
0.1 0.2 0.2
0.1 0.2 0.3
0.1 0.2 0.4
0.1 0.2 0.5
0.1 0.2 0.6
0.1 0.2 0.7
0.1 0.2 0.8
0.1 0.2 0.9
0.1 0.2 1
0.1 0.2 1.1
0.1 0.2 1.2
0.1 0.2 1.3
0.1 0.2 1.4
0.1 0.2 1.5
0.1 0.2 1.6
0.1 0.2 1.7
0.1 0.2 1.8
0.1 0.2 1.9
0.1 0.2 2
0.1 0.3 0
0.1 0.3 0.1
0.1 0.3 0.2
0.1 0.3 0.3
0.1 0.3 0.4
0.1 0.3 0.5
0.1 0.3 0.6
0.1 0.3 0.7
0.1 0.3 0.8
0.1 0.3 0.9
0.1 0.3 1
0.1 0.3 1.1
0.1 0.3 1.2
0.1 0.3 1.3
0.1 0.3 1.4
0.1 0.3 1.5
0.1 0.3 1.6
0.1 0.3 1.7
0.1 0.3 1.8
0.1 0.3 1.9
0.1 0.3 2
0.1 0.4 0
0.1 0.4 0.1
0.1 0.4 0.2
0.1 0.4 0.3
0.1 0.4 0.4
0.1 0.4 0.5
0.1 0.4 0.6
0.1 0.4 0.7
0.1 0.4 0.8
0.1 0.4 0.9
0.1 0.4 1
0.1 0.4 1.1
0.1 0.4 1.2
0.1 0.4 1.3
0.1 0.4 1.4
0.1 0.4 1.5
0.1 0.4 1.6
0.1 0.4 1.7
0.1 0.4 1.8
0.1 0.4 1.9
0.1 0.4 2
0.1 0.5 0
0.1 0.5 0.1
0.1 0.5 0.2
0.1 0.5 0.3
0.1 0.5 0.4
0.1 0.5 0.5
0.1 0.5 0.6
0.1 0.5 0.7
0.1 0.5 0.8
0.1 0.5 0.9
0.1 0.5 1
0.1 0.5 1.1
0.1 0.5 1.2
0.1 0.5 1.3
0.1 0.5 1.4
0.1 0.5 1.5
0.1 0.5 1.6
0.1 0.5 1.7
0.1 0.5 1.8
0.1 0.5 1.9
0.1 0.5 2
0.1 0.6 0
0.1 0.6 0.1
0.1 0.6 0.2
0.1 0.6 0.3
0.1 0.6 0.4
0.1 0.6 0.5
0.1 0.6 0.6
0.1 0.6 0.7
0.1 0.6 0.8
0.1 0.6 0.9
0.1 0.6 1
0.1 0.6 1.1
0.1 0.6 1.2
0.1 0.6 1.3
0.1 0.6 1.4
0.1 0.6 1.5
0.1 0.6 1.6
0.1 0.6 1.7
0.1 0.6 1.8
0.1 0.6 1.9
0.1 0.6 2
0.1 0.7 0
0.1 0.7 0.1
0.1 0.7 0.2
0.1 0.7 0.3
0.1 0.7 0.4
0.1 0.7 0.5
0.1 0.7 0.6
0.1 0.7 0.7
0.1 0.7 0.8
0.1 0.7 0.9
0.1 0.7 1
0.1 0.7 1.1
0.1 0.7 1.2
0.1 0.7 1.3
0.1 0.7 1.4
0.1 0.7 1.5
0.1 0.7 1.6
0.1 0.7 1.7
0.1 0.7 1.8
0.1 0.7 1.9
0.1 0.7 2
0.1 0.8 0
0.1 0.8 0.1
0.1 0.8 0.2
0.1 0.8 0.3
0.1 0.8 0.4
0.1 0.8 0.5
0.1 0.8 0.6
0.1 0.8 0.7
0.1 0.8 0.8
0.1 0.8 0.9
0.1 0.8 1
0.1 0.8 1.1
0.1 0.8 1.2
0.1 0.8 1.3
0.1 0.8 1.4
0.1 0.8 1.5
0.1 0.8 1.6
0.1 0.8 1.7
0.1 0.8 1.8
0.1 0.8 1.9
0.1 0.8 2
0.1 0.9 0
0.1 0.9 0.1
0.1 0.9 0.2
0.1 0.9 0.3
0.1 0.9 0.4
0.1 0.9 0.5
0.1 0.9 0.6
0.1 0.9 0.7
0.1 0.9 0.8
0.1 0.9 0.9
0.1 0.9 1
0.1 0.9 1.1
0.1 0.9 1.2
0.1 0.9 1.3
0.1 0.9 1.4
0.1 0.9 1.5
0.1 0.9 1.6
0.1 0.9 1.7
0.1 0.9 1.8
0.1 0.9 1.9
0.1 0.9 2
0.1 1 0
0.1 1 0.1
0.1 1 0.2
0.1 1 0.3
0.1 1 0.4
0.1 1 0.5
0.1 1 0.6
0.1 1 0.7
0.1 1 0.8
0.1 1 0.9
0.1 1 1
0.1 1 1.1
0.1 1 1.2
0.1 1 1.3
0.1 1 1.4
0.1 1 1.5
0.1 1 1.6
0.1 1 1.7
0.1 1 1.8
0.1 1 1.9
0.1 1 2
0.1 1.1 0
0.1 1.1 0.1
0.1 1.1 0.2
0.1 1.1 0.3
0.1 1.1 0.4
0.1 1.1 0.5
0.1 1.1 0.6
0.1 1.1 0.7
0.1 1.1 0.8
0.1 1.1 0.9
0.1 1.1 1
0.1 1.1 1.1
0.1 1.1 1.2
0.1 1.1 1.3
0.1 1.1 1.4
0.1 1.1 1.5
0.1 1.1 1.6
0.1 1.1 1.7
0.1 1.1 1.8
0.1 1.1 1.9
0.1 1.1 2
0.1 1.2 0
0.1 1.2 0.1
0.1 1.2 0.2
0.1 1.2 0.3
0.1 1.2 0.4
0.1 1.2 0.5
0.1 1.2 0.6
0.1 1.2 0.7
0.1 1.2 0.8
0.1 1.2 0.9
0.1 1.2 1
0.1 1.2 1.1
0.1 1.2 1.2
0.1 1.2 1.3
0.1 1.2 1.4
0.1 1.2 1.5
0.1 1.2 1.6
0.1 1.2 1.7
0.1 1.2 1.8
0.1 1.2 1.9
0.1 1.2 2
0.1 1.3 0
0.1 1.3 0.1
0.1 1.3 0.2
0.1 1.3 0.3
0.1 1.3 0.4
0.1 1.3 0.5
0.1 1.3 0.6
0.1 1.3 0.7
0.1 1.3 0.8
0.1 1.3 0.9
0.1 1.3 1
0.1 1.3 1.1
0.1 1.3 1.2
0.1 1.3 1.3
0.1 1.3 1.4
0.1 1.3 1.5
0.1 1.3 1.6
0.1 1.3 1.7
0.1 1.3 1.8
0.1 1.3 1.9
0.1 1.3 2
0.1 1.4 0
0.1 1.4 0.1
0.1 1.4 0.2
0.1 1.4 0.3
0.1 1.4 0.4
0.1 1.4 0.5
0.1 1.4 0.6
0.1 1.4 0.7
0.1 1.4 0.8
0.1 1.4 0.9
0.1 1.4 1
0.1 1.4 1.1
0.1 1.4 1.2
0.1 1.4 1.3
0.1 1.4 1.4
0.1 1.4 1.5
0.1 1.4 1.6
0.1 1.4 1.7
0.1 1.4 1.8
0.1 1.4 1.9
0.1 1.4 2
0.1 1.5 0
0.1 1.5 0.1
0.1 1.5 0.2
0.1 1.5 0.3
0.1 1.5 0.4
0.1 1.5 0.5
0.1 1.5 0.6
0.1 1.5 0.7
0.1 1.5 0.8
0.1 1.5 0.9
0.1 1.5 1
0.1 1.5 1.1
0.1 1.5 1.2
0.1 1.5 1.3
0.1 1.5 1.4
0.1 1.5 1.5
0.1 1.5 1.6
0.1 1.5 1.7
0.1 1.5 1.8
0.1 1.5 1.9
0.1 1.5 2
0.1 1.6 0
0.1 1.6 0.1
0.1 1.6 0.2
0.1 1.6 0.3
0.1 1.6 0.4
0.1 1.6 0.5
0.1 1.6 0.6
0.1 1.6 0.7
0.1 1.6 0.8
0.1 1.6 0.9
0.1 1.6 1
0.1 1.6 1.1
0.1 1.6 1.2
0.1 1.6 1.3
0.1 1.6 1.4
0.1 1.6 1.5
0.1 1.6 1.6
0.1 1.6 1.7
0.1 1.6 1.8
0.1 1.6 1.9
0.1 1.6 2
0.1 1.7 0
0.1 1.7 0.1
0.1 1.7 0.2
0.1 1.7 0.3
0.1 1.7 0.4
0.1 1.7 0.5
0.1 1.7 0.6
0.1 1.7 0.7
0.1 1.7 0.8
0.1 1.7 0.9
0.1 1.7 1
0.1 1.7 1.1
0.1 1.7 1.2
0.1 1.7 1.3
0.1 1.7 1.4
0.1 1.7 1.5
0.1 1.7 1.6
0.1 1.7 1.7
0.1 1.7 1.8
0.1 1.7 1.9
0.1 1.7 2
0.1 1.8 0
0.1 1.8 0.1
0.1 1.8 0.2
0.1 1.8 0.3
0.1 1.8 0.4
0.1 1.8 0.5
0.1 1.8 0.6
0.1 1.8 0.7
0.1 1.8 0.8
0.1 1.8 0.9
0.1 1.8 1
0.1 1.8 1.1
0.1 1.8 1.2
0.1 1.8 1.3
0.1 1.8 1.4
0.1 1.8 1.5
0.1 1.8 1.6
0.1 1.8 1.7
0.1 1.8 1.8
0.1 1.8 1.9
0.1 1.8 2
0.1 1.9 0
0.1 1.9 0.1
0.1 1.9 0.2
0.1 1.9 0.3
0.1 1.9 0.4
0.1 1.9 0.5
0.1 1.9 0.6
0.1 1.9 0.7
0.1 1.9 0.8
0.1 1.9 0.9
0.1 1.9 1
0.1 1.9 1.1
0.1 1.9 1.2
0.1 1.9 1.3
0.1 1.9 1.4
0.1 1.9 1.5
0.1 1.9 1.6
0.1 1.9 1.7
0.1 1.9 1.8
0.1 1.9 1.9
0.1 1.9 2
0.1 2 0
0.1 2 0.1
0.1 2 0.2
0.1 2 0.3
0.1 2 0.4
0.1 2 0.5
0.1 2 0.6
0.1 2 0.7
0.1 2 0.8
0.1 2 0.9
0.1 2 1
0.1 2 1.1
0.1 2 1.2
0.1 2 1.3
0.1 2 1.4
0.1 2 1.5
0.1 2 1.6
0.1 2 1.7
0.1 2 1.8
0.1 2 1.9
0.1 2 2
0.2 0 0
0.2 0 0.1
0.2 0 0.2
0.2 0 0.3
0.2 0 0.4
0.2 0 0.5
0.2 0 0.6
0.2 0 0.7
0.2 0 0.8
0.2 0 0.9
0.2 0 1
0.2 0 1.1
0.2 0 1.2
0.2 0 1.3
0.2 0 1.4
0.2 0 1.5
0.2 0 1.6
0.2 0 1.7
0.2 0 1.8
0.2 0 1.9
0.2 0 2
0.2 0.1 0
0.2 0.1 0.1
0.2 0.1 0.2
0.2 0.1 0.3
0.2 0.1 0.4
0.2 0.1 0.5
0.2 0.1 0.6
0.2 0.1 0.7
0.2 0.1 0.8
0.2 0.1 0.9
0.2 0.1 1
0.2 0.1 1.1
0.2 0.1 1.2
0.2 0.1 1.3
0.2 0.1 1.4
0.2 0.1 1.5
0.2 0.1 1.6
0.2 0.1 1.7
0.2 0.1 1.8
0.2 0.1 1.9
0.2 0.1 2
0.2 0.2 0
0.2 0.2 0.1
0.2 0.2 0.2
0.2 0.2 0.3
0.2 0.2 0.4
0.2 0.2 0.5
0.2 0.2 0.6
0.2 0.2 0.7
0.2 0.2 0.8
0.2 0.2 0.9
0.2 0.2 1
0.2 0.2 1.1
0.2 0.2 1.2
0.2 0.2 1.3
0.2 0.2 1.4
0.2 0.2 1.5
0.2 0.2 1.6
0.2 0.2 1.7
0.2 0.2 1.8
0.2 0.2 1.9
[...]
CELL_DATA 8000
SCALARS Phi_sigma_(3D) float 1
LOOKUP_TABLE default
0.188304
0.187097
0.18577
0.184803
0.184054
0.183509
0.183149
0.182917
0.182826
0.182779
0.182781
0.182838
0.183014
0.183359
0.18383
0.184397
0.185129
0.186116
0.187422
0.188605
0.189028
0.187264
0.185691
0.184794
0.184049
0.18351
0.183178
0.182941
0.182899
0.18285
0.182846
0.182871
0.183023
0.183391
0.183879
0.184409
0.185095
0.186055
0.187591
0.189309
0.193089
0.191372
0.189856
0.189028
0.188358
0.187903
0.187613
0.187372
0.187325
0.187292
0.187331
0.187357
0.187478
0.187809
0.188276
0.188804
0.189436
0.190294
0.191757
0.193507
0.200858
0.199907
0.198868
0.198147
0.197618
0.197276
0.19703
0.196824
0.196738
0.19673
0.196809
0.196879
0.196999
0.197258
0.197652
0.198156
0.198721
0.199423
0.200432
0.201479
0.209677
0.209198
0.208588
0.208076
0.207681
0.207402
0.207203
0.207061
0.206998
0.207002
0.207066
0.207158
0.207302
0.207532
0.207854
0.208253
0.208711
0.209247
0.209871
0.210393
0.218267
0.218025
0.217678
0.217346
0.21707
0.216863
0.216717
0.216624
0.216588
0.216604
0.216666
0.216766
0.216912
0.217114
0.217376
0.217687
0.218038
0.218418
0.218797
0.219065
0.226301
0.226175
0.225979
0.225774
0.225593
0.225453
0.225356
0.225301
0.22529
0.225319
0.225385
0.225486
0.225623
0.225799
0.226012
0.226255
0.226517
0.226781
0.227017
0.227167
0.233742
0.233675
0.233565
0.233444
0.233334
0.233249
0.233193
0.23317
0.23318
0.233221
0.233292
0.233391
0.233517
0.233669
0.233843
0.234034
0.23423
0.234417
0.234571
0.234662
0.240625
0.24059
0.240531
0.240464
0.240405
0.240361
0.240339
0.240342
0.240369
0.240421
0.240496
0.240592
0.240707
0.24084
0.240985
0.241137
0.241287
0.241422
0.241529
0.241588
0.246989
0.246973
0.246944
0.246914
0.246889
0.246877
0.246882
0.246905
0.246947
0.247007
0.247085
0.247179
0.247286
0.247403
0.247526
0.24765
0.247768
0.24787
0.247947
0.247989
0.252861
0.252855
0.252847
0.25284
0.25284
0.252851
0.252875
0.252914
0.252968
0.253036
0.253117
0.253208
0.253308
0.253414
0.253521
0.253626
0.253721
0.253802
0.253861
0.253893
0.258248
0.258249
0.258253
0.258263
0.25828
0.258308
0.258347
0.258398
0.258462
0.258535
0.258618
0.258709
0.258804
0.258901
0.258997
0.259088
0.259169
0.259235
0.259283
0.259308
0.263143
0.263149
0.263162
0.263182
0.263212
0.263252
0.263302
0.263363
0.263433
0.263512
0.263597
0.263687
0.263778
0.26387
0.263957
0.264039
0.264109
0.264167
0.264207
0.264228
0.267529
0.267538
0.267556
0.267584
0.267622
0.267671
0.26773
0.267798
0.267874
0.267956
0.268043
0.268133
0.268222
0.268309
0.268391
0.268466
0.26853
0.268581
0.268617
0.268635
0.271376
0.271387
0.27141
0.271443
0.271488
0.271544
0.271609
0.271682
0.271763
0.271848
0.271936
0.272025
0.272113
0.272197
0.272276
0.272346
0.272405
0.272452
0.272485
0.272501
0.274655
0.274668
0.274693
0.27473
0.27478
0.27484
0.27491
0.274987
0.275071
0.275159
0.275248
0.275337
0.275424
0.275506
0.275582
0.275648
0.275705
0.275749
0.275779
0.275795
0.277331
0.277345
0.277372
0.277412
0.277465
0.277529
0.277602
0.277682
0.277768
0.277858
0.277948
0.278038
0.278124
0.278204
0.278278
0.278342
0.278397
0.278439
0.278468
0.278483
0.279374
0.279388
0.279416
0.279458
0.279513
0.279579
0.279655
0.279737
0.279825
0.279916
0.280007
0.280096
0.280182
0.280261
0.280334
0.280397
0.280449
0.28049
0.280518
0.280533
0.280754
0.280768
0.280798
0.280841
0.280897
0.280965
0.281041
0.281125
0.281214
0.281306
0.281397
0.281486
0.281572
0.281651
0.281722
0.281784
0.281836
0.281876
0.281904
0.281918
0.281451
0.281466
0.281495
0.281539
0.281596
0.281664
0.281741
0.281826
0.281915
0.282007
0.282099
0.282188
0.282273
0.282352
0.282423
0.282485
0.282536
0.282576
0.282603
0.282617
0.189157
0.187419
0.185861
0.184966
0.184226
0.183695
0.183364
0.183123
0.183078
0.18303
0.183032
0.183058
0.183208
0.183571
0.184058
0.184594
0.185279
0.186231
0.187751
0.189455
0.187842
0.18352
0.181161
0.180785
0.179917
0.179297
0.17906
0.178721
0.178939
0.178818
0.178779
0.178671
0.178744
0.179267
0.17987
0.180254
0.180831
0.181562
0.183791
0.187916
0.191519
0.187165
0.184739
0.184401
0.183606
0.183175
0.182998
0.18257
0.182735
0.182633
0.182759
0.182639
0.182611
0.18305
0.183643
0.184148
0.184674
0.185204
0.187367
0.191885
0.201209
0.199695
0.198299
0.197601
0.197079
0.196878
0.19668
0.196362
0.196257
0.196254
0.196482
0.196507
0.196518
0.196734
0.197156
0.197784
0.198311
0.198857
0.200065
0.202008
0.210848
0.210259
0.209583
0.209082
0.208701
0.208448
0.208263
0.208116
0.208058
0.208067
0.208147
0.208231
0.208358
0.208582
0.208903
0.209305
0.209744
0.210255
0.210927
0.211596
0.219538
0.219278
0.218926
0.218604
0.21834
0.218144
0.218006
0.217919
0.217889
0.217908
0.217973
0.218071
0.218214
0.218413
0.218669
0.218973
0.219311
0.21968
0.220064
0.220353
0.227496
0.227369
0.227178
0.226981
0.22681
0.226677
0.226587
0.226538
0.226531
0.226562
0.22663
0.22673
0.226866
0.227039
0.227248
0.227484
0.227738
0.227995
0.228227
0.228377
0.234841
0.234776
0.234671
0.234556
0.234453
0.234373
0.234323
0.234304
0.234318
0.234361
0.234433
0.234532
0.234657
0.234808
0.234979
0.235165
0.235356
0.235537
0.235688
0.235776
0.24165
0.241617
0.241561
0.241499
0.241444
0.241405
0.241388
0.241394
0.241424
0.241478
0.241554
0.241651
0.241766
0.241897
0.24204
0.24219
0.242336
0.242468
0.242572
0.24263
0.247969
0.247953
0.247928
0.2479
0.247879
0.247871
0.247879
0.247905
0.247949
0.248012
0.248091
0.248186
0.248292
0.248409
0.248531
0.248653
0.248769
0.24887
0.248945
0.248986
0.253819
0.253814
0.253807
0.253803
0.253806
0.25382
0.253847
0.253889
0.253945
0.254015
0.254097
0.25419
0.25429
0.254396
0.254503
0.254606
0.254701
0.25478
0.254839
0.254869
0.259203
0.259205
0.259211
0.259222
0.259242
0.259273
0.259315
0.259368
0.259434
0.25951
0.259594
0.259686
0.259782
0.259879
0.259975
0.260065
0.260146
0.260212
0.260259
0.260284
0.26411
0.264117
0.26413
0.264153
0.264185
0.264227
0.26428
0.264344
0.264416
0.264497
0.264584
0.264675
0.264768
0.264859
0.264947
0.265028
0.265099
0.265156
0.265196
0.265217
0.268516
0.268526
0.268545
0.268575
0.268616
0.268668
0.268729
0.2688
0.268878
0.268963
0.269052
0.269142
0.269233
0.269321
0.269403
0.269478
0.269542
0.269593
0.269628
0.269647
0.27239
0.272402
0.272426
0.272461
0.272508
0.272566
0.272634
0.27271
0.272793
0.272881
0.272972
0.273062
0.273151
0.273236
0.273315
0.273385
0.273445
0.273492
0.273524
0.273541
0.275697
0.27571
0.275737
0.275776
0.275828
0.275891
0.275964
0.276044
0.276131
0.276221
0.276313
0.276403
0.276492
0.276575
0.276651
0.276718
0.276774
0.276818
0.276849
0.276864
0.2784
0.278414
0.278443
0.278485
0.27854
0.278607
0.278683
0.278767
0.278856
0.278948
0.27904
0.279132
0.279219
0.279301
0.279375
0.27944
0.279494
0.279536
0.279565
0.27958
0.280465
0.28048
0.28051
0.280554
0.280612
0.280681
0.280759
0.280845
0.280936
0.281029
0.281122
0.281214
0.281301
0.281381
0.281454
0.281518
0.28157
0.281611
0.28164
0.281654
0.281862
0.281877
0.281908
0.281953
0.282012
0.282083
0.282163
0.28225
0.282342
0.282436
0.28253
0.282621
0.282708
0.282788
0.28286
0.282922
0.282974
0.283014
0.283042
0.283056
0.282567
0.282583
0.282614
0.28266
0.28272
0.282791
0.282872
0.282959
0.283052
0.283146
0.28324
0.283332
0.283418
0.283498
0.283569
0.283632
0.283683
0.283723
0.28375
0.283764
0.193452
0.19185
0.190378
0.189542
0.188888
0.188464
0.188179
0.187924
0.187856
0.187829
0.187895
0.187928
0.188037
0.188347
0.188811
0.189365
0.189999
0.190831
0.192239
0.193929
0.191878
0.187965
0.185571
0.185101
0.184351
0.184065
0.183898
0.183401
0.183458
0.183383
0.18365
0.183544
0.18345
0.183798
0.184379
0.185042
0.185584
0.186041
0.188078
0.192488
0.195773
0.191739
0.189475
0.189163
0.188442
0.188046
0.187885
0.187502
0.187662
0.187578
0.187693
0.187586
0.187571
0.187989
0.188546
0.189009
0.189489
0.189988
0.192023
0.196204
0.205098
0.203282
0.202124
0.201704
0.201172
0.200676
0.200458
0.200363
0.200474
0.200437
0.200326
0.200349
0.200543
0.200932
0.201328
0.201557
0.202013
0.20272
0.203967
0.205455
0.214051
0.213441
0.212838
0.21242
0.212064
0.211783
0.211609
0.211515
0.211505
0.211511
0.211537
0.211617
0.211776
0.212024
0.212322
0.212638
0.213033
0.213537
0.214176
0.214751
0.222289
0.222041
0.221723
0.22144
0.2212
0.221015
0.220892
0.220824
0.220811
0.220833
0.220891
0.220988
0.221134
0.221333
0.221574
0.221847
0.222158
0.222505
0.222861
0.22312
0.229914
0.229797
0.229625
0.229451
0.229297
0.229179
0.229101
0.229063
0.229065
0.229101
0.22917
0.22927
0.229405
0.229574
0.229772
0.229993
0.23023
0.230469
0.230685
0.230822
0.237023
0.236964
0.236871
0.23677
0.23668
0.236611
0.236571
0.236561
0.236581
0.236629
0.236703
0.236802
0.236926
0.237073
0.237238
0.237415
0.237595
0.237765
0.237905
0.237988
0.243678
0.243648
0.2436
0.243548
0.243502
0.243472
0.243462
0.243475
0.243511
0.243569
0.243647
0.243745
0.243859
0.243988
0.244128
0.244271
0.244411
0.244536
0.244634
0.244688
0.249907
0.249895
0.249874
0.249853
0.249839
0.249838
0.249852
0.249884
0.249934
0.25
0.250082
0.250178
0.250285
0.2504
0.25052
0.250639
0.250751
0.250847
0.250919
0.250958
0.255719
0.255716
0.255714
0.255714
0.255723
0.255743
0.255776
0.255823
0.255884
0.255957
0.256042
0.256137
0.256238
0.256343
0.256449
0.256551
0.256643
0.25672
0.256777
0.256806
0.261104
0.261107
0.261116
0.261132
0.261157
0.261192
0.261239
0.261298
0.261368
0.261448
0.261536
0.26163
0.261727
0.261825
0.26192
0.26201
0.262089
0.262154
0.2622
0.262224
0.266038
0.266046
0.266063
0.266089
0.266126
0.266173
0.266231
0.2663
0.266377
0.266462
0.266552
0.266646
0.26674
0.266833
0.266921
0.267002
0.267072
0.267129
0.267168
0.267189
0.27049
0.270501
0.270523
0.270557
0.270603
0.270659
0.270726
0.270802
0.270885
0.270974
0.271067
0.27116
0.271253
0.271342
0.271425
0.2715
0.271564
0.271614
0.27165
0.271668
0.274421
0.274434
0.27446
0.2745
0.274551
0.274615
0.274688
0.27477
0.274858
0.27495
0.275045
0.275139
0.27523
0.275316
0.275396
0.275467
0.275526
0.275573
0.275605
0.275622
0.277787
0.277802
0.277831
0.277875
0.277931
0.278
0.278078
0.278164
0.278256
0.278351
0.278447
0.278541
0.278632
0.278717
0.278794
0.278861
0.278918
0.278962
0.278992
0.279008
0.280546
0.280562
0.280594
0.28064
0.2807
0.280773
0.280855
0.280945
0.281039
0.281136
0.281233
0.281328
0.281418
0.281502
0.281577
0.281642
0.281697
0.281739
0.281767
0.281782
0.282659
0.282675
0.282708
0.282757
0.28282
0.282895
0.282979
0.283072
0.283168
0.283267
0.283365
0.28346
0.283549
0.283632
0.283706
0.28377
0.283822
0.283863
0.283891
0.283906
0.28409
0.284107
0.284141
0.28419
0.284255
0.284332
0.284418
0.284512
0.28461
0.284709
0.284808
0.284903
0.284992
0.285074
0.285147
0.28521
0.285262
0.285302
0.285329
0.285343
0.284813
0.28483
0.284865
0.284915
0.28498
0.285058
0.285145
0.28524
0.285338
0.285438
0.285537
0.285632
0.285721
0.285803
0.285875
0.285938
0.285989
0.286029
0.286056
0.28607
0.201351
0.200466
0.199497
0.198804
0.19828
0.197917
0.197666
0.197482
0.19741
0.197399
0.197451
0.197523
0.197664
0.197934
0.19832
0.198791
0.199347
0.200055
0.201017
0.201942
0.201866
0.200464
0.199242
0.198599
0.198076
0.197743
0.19752
0.197306
0.197263
0.197252
0.197331
0.197373
0.197473
0.197751
0.198158
0.198633
0.199153
0.19981
0.200982
0.20248
0.204905
0.203083
0.201791
0.201312
0.200798
0.200468
0.200281
0.200068
0.200095
0.200071
0.200139
0.200154
0.200243
0.200549
0.200956
0.201367
0.201829
0.202394
0.20362
0.205504
0.211705
0.210836
0.210059
0.209598
0.209201
0.208893
0.208709
0.208602
0.208604
0.208604
0.208624
0.20869
0.208843
0.209112
0.209434
0.209762
0.210179
0.210733
0.211535
0.212363
0.219091
0.218704
0.218263
0.217914
0.217624
0.217401
0.217258
0.217181
0.217169
0.217186
0.217233
0.217324
0.217476
0.217694
0.217958
0.218252
0.218601
0.219018
0.219495
0.21988
0.226403
0.226221
0.225974
0.225742
0.225545
0.225392
0.225293
0.225243
0.225239
0.22527
0.225333
0.225433
0.225575
0.22576
0.22598
0.226227
0.226503
0.226799
0.227088
0.227286
0.233456
0.233364
0.233226
0.233084
0.232958
0.232863
0.232803
0.232779
0.232791
0.232834
0.232906
0.233008
0.233139
0.2333
0.233484
0.233686
0.233899
0.23411
0.234294
0.234407
0.240206
0.240159
0.240084
0.240003
0.239931
0.23988
0.239853
0.239855
0.239883
0.239937
0.240015
0.240115
0.240237
0.240378
0.240534
0.240698
0.240864
0.241017
0.241141
0.241213
0.246644
0.246621
0.246584
0.246544
0.246512
0.246494
0.246495
0.246518
0.246561
0.246625
0.246707
0.246806
0.24692
0.247045
0.247179
0.247314
0.247445
0.247561
0.247649
0.247699
0.252758
0.252749
0.252735
0.252724
0.25272
0.252728
0.252752
0.252792
0.252849
0.252921
0.253006
0.253104
0.253211
0.253325
0.253442
0.253556
0.253662
0.253753
0.25382
0.253856
0.258528
0.258528
0.25853
0.258538
0.258555
0.258583
0.258624
0.258679
0.258747
0.258826
0.258915
0.259012
0.259115
0.25922
0.259324
0.259423
0.259512
0.259586
0.259639
0.259667
0.263926
0.263932
0.263945
0.263967
0.263999
0.264042
0.264097
0.264164
0.26424
0.264326
0.264418
0.264515
0.264614
0.264713
0.264808
0.264896
0.264973
0.265036
0.26508
0.265104
0.268913
0.268923
0.268944
0.268976
0.269019
0.269074
0.26914
0.269216
0.269301
0.269392
0.269487
0.269584
0.269681
0.269775
0.269864
0.269944
0.270013
0.270068
0.270107
0.270127
0.273444
0.273457
0.273483
0.273523
0.273575
0.27364
0.273714
0.273798
0.273889
0.273984
0.274082
0.27418
0.274275
0.274366
0.27445
0.274525
0.274588
0.274638
0.274673
0.27469
0.277468
0.277483
0.277514
0.277559
0.277618
0.27769
0.277772
0.277862
0.277957
0.278057
0.278157
0.278255
0.27835
0.278438
0.278519
0.27859
0.278649
0.278695
0.278727
0.278743
0.280931
0.280948
0.280982
0.281032
0.281096
0.281173
0.281261
0.281356
0.281456
0.281558
0.28166
0.281759
0.281853
0.28194
0.282018
0.282086
0.282142
0.282186
0.282216
0.282231
0.283782
0.2838
0.283836
0.283889
0.283958
0.284039
0.284131
0.28423
0.284333
0.284438
0.284541
0.284641
0.284734
0.28482
0.284897
0.284962
0.285016
0.285058
0.285086
0.285101
0.285971
0.28599
0.286028
0.286083
0.286154
0.286239
0.286334
0.286435
0.286541
0.286647
0.286752
0.286852
0.286945
0.28703
0.287106
0.28717
0.287222
0.287262
0.28729
0.287304
0.287457
0.287477
0.287516
0.287573
0.287646
0.287732
0.287829
0.287932
0.28804
0.288147
0.288252
0.288353
0.288446
0.28853
0.288604
0.288668
0.288719
0.288758
0.288785
0.288799
0.28821
0.288229
0.288269
0.288327
0.288401
0.288488
0.288586
0.28869
0.288798
0.288906
0.289012
0.289112
0.289205
0.289289
0.289363
0.289426
0.289477
0.289515
0.289542
0.289555
0.210069
0.20962
0.209045
0.208554
0.208164
0.207878
0.207678
0.207546
0.207491
0.207492
0.207545
0.207638
0.20779
0.208025
0.208341
0.208724
0.209172
0.209701
0.210295
0.210767
0.211206
0.210649
0.210018
0.209538
0.209159
0.208887
0.2087
0.208571
0.208525
0.20853
0.208587
0.208673
0.208816
0.20905
0.209364
0.209738
0.21017
0.210688
0.211335
0.211921
0.214136
0.213529
0.21291
0.212484
0.212136
0.211884
0.211718
0.211604
0.211579
0.211588
0.211644
0.211725
0.211864
0.212096
0.212397
0.21274
0.213136
0.213614
0.214249
0.214879
0.219131
0.218744
0.2183
0.217949
0.217662
0.217446
0.217304
0.217224
0.217208
0.217227
0.217279
0.21737
0.217518
0.217733
0.217998
0.218296
0.218645
0.219057
0.219534
0.219929
0.225114
0.224898
0.224614
0.224358
0.224143
0.223978
0.223871
0.223816
0.22381
0.223839
0.223901
0.224
0.224144
0.224335
0.224563
0.224822
0.225112
0.225433
0.225756
0.225987
0.231466
0.231349
0.231177
0.231006
0.230858
0.230745
0.230673
0.230642
0.23065
0.230691
0.230761
0.230863
0.230999
0.231168
0.231364
0.231582
0.231815
0.232054
0.23227
0.232409
0.23789
0.237826
0.237726
0.237621
0.237528
0.23746
0.237422
0.237415
0.237438
0.237489
0.237566
0.237669
0.237796
0.237946
0.238114
0.238295
0.23848
0.238657
0.238806
0.238894
0.244242
0.244209
0.244155
0.244097
0.244048
0.244016
0.244007
0.244022
0.24406
0.244122
0.244204
0.244305
0.244425
0.244559
0.244704
0.244854
0.245002
0.245136
0.245241
0.245301
0.250446
0.25043
0.250406
0.250382
0.250365
0.250363
0.250378
0.250412
0.250465
0.250536
0.250622
0.250723
0.250836
0.250957
0.251084
0.25121
0.25133
0.251434
0.251513
0.251556
0.256445
0.256441
0.256437
0.256436
0.256445
0.256465
0.256501
0.256551
0.256616
0.256695
0.256786
0.256886
0.256994
0.257106
0.257219
0.257327
0.257427
0.257511
0.257572
0.257605
0.262191
0.262195
0.262204
0.262221
0.262248
0.262287
0.262338
0.262403
0.262479
0.262565
0.26266
0.26276
0.262864
0.262969
0.263071
0.263167
0.263252
0.263322
0.263372
0.263398
0.267632
0.267641
0.26766
0.267689
0.267731
0.267784
0.26785
0.267926
0.268011
0.268104
0.268202
0.268304
0.268405
0.268505
0.268599
0.268685
0.26876
0.26882
0.268863
0.268885
0.272711
0.272724
0.27275
0.272789
0.272842
0.272907
0.272984
0.27307
0.273164
0.273262
0.273364
0.273466
0.273566
0.273662
0.27375
0.27383
0.273897
0.273951
0.273988
0.274007
0.277366
0.277382
0.277413
0.277461
0.277523
0.277598
0.277683
0.277778
0.277878
0.277982
0.278087
0.27819
0.278289
0.278382
0.278467
0.278541
0.278603
0.278652
0.278686
0.278703
0.281531
0.281549
0.281586
0.281639
0.281708
0.281791
0.281885
0.281986
0.282092
0.282201
0.282309
0.282413
0.282511
0.282602
0.282684
0.282754
0.282813
0.282858
0.282888
0.282904
0.285139
0.285159
0.285199
0.285258
0.285333
0.285422
0.285522
0.285629
0.28574
0.285852
0.285962
0.286068
0.286166
0.286255
0.286334
0.286402
0.286457
0.2865
0.286528
0.286543
0.288124
0.288145
0.288188
0.288251
0.288331
0.288425
0.288529
0.288641
0.288756
0.288871
0.288983
0.28909
0.289188
0.289276
0.289353
0.289419
0.289471
0.289512
0.289539
0.289553
0.290425
0.290448
0.290493
0.290558
0.290642
0.290739
0.290848
0.290963
0.291081
0.291198
0.291312
0.291419
0.291517
0.291604
0.29168
0.291743
0.291795
0.291833
0.291859
0.291872
0.291992
0.292016
0.292062
0.29213
0.292215
0.292316
0.292426
0.292544
0.292664
0.292782
0.292897
0.293004
0.293102
0.293188
0.293263
0.293326
0.293376
0.293413
0.293438
0.293451
0.292787
0.292811
0.292858
0.292927
0.293013
0.293115
0.293227
0.293345
0.293466
0.293586
0.2937
0.293807
0.293905
0.293992
0.294066
0.294128
0.294177
0.294214
0.294239
0.294252
0.21856
0.21833
0.218
0.21768
0.217409
0.217201
0.217056
0.216967
0.216934
0.216949
0.217008
0.217108
0.217256
0.217459
0.217716
0.21802
0.218363
0.218735
0.219099
0.219348
0.219787
0.219539
0.219201
0.21889
0.218629
0.218432
0.218295
0.218212
0.218184
0.218203
0.218263
0.218362
0.218507
0.218707
0.21896
0.219256
0.219588
0.219952
0.220323
0.220593
0.222426
0.222181
0.221864
0.221582
0.221347
0.221169
0.221048
0.220978
0.220961
0.220985
0.221047
0.221145
0.221287
0.221482
0.221722
0.221999
0.222308
0.222647
0.222999
0.223264
0.226477
0.226295
0.226049
0.225818
0.225622
0.225473
0.225375
0.225324
0.225319
0.22535
0.225415
0.225515
0.225656
0.225839
0.226059
0.226307
0.226581
0.226875
0.227163
0.227363
0.231497
0.23138
0.231208
0.231037
0.23089
0.230778
0.230707
0.230676
0.230684
0.230724
0.230795
0.230897
0.231032
0.231201
0.231397
0.231614
0.231848
0.232086
0.232302
0.23244
0.237082
0.237011
0.236901
0.236786
0.236686
0.236611
0.236569
0.236559
0.23658
0.236631
0.236707
0.23681
0.236939
0.237092
0.237265
0.237452
0.237645
0.237832
0.23799
0.238085
0.24296
0.242919
0.242854
0.242785
0.242725
0.242685
0.24267
0.24268
0.242717
0.242777
0.242859
0.242962
0.243084
0.243223
0.243375
0.243534
0.243692
0.243837
0.243954
0.244021
0.248957
0.248936
0.248903
0.248868
0.248843
0.248832
0.248841
0.248871
0.248922
0.248991
0.249078
0.249181
0.249298
0.249425
0.249559
0.249694
0.249824
0.249939
0.250027
0.250075
0.254959
0.254951
0.25494
0.254932
0.254933
0.254948
0.254978
0.255025
0.255089
0.255168
0.255259
0.255362
0.255474
0.255592
0.255711
0.255828
0.255936
0.256029
0.256097
0.256134
0.260879
0.26088
0.260885
0.260897
0.26092
0.260954
0.261003
0.261066
0.261141
0.261228
0.261325
0.261429
0.261537
0.261647
0.261755
0.261858
0.26195
0.262027
0.262082
0.262112
0.266642
0.26665
0.266667
0.266694
0.266733
0.266785
0.266849
0.266926
0.267012
0.267107
0.267208
0.267313
0.267419
0.267523
0.267623
0.267715
0.267795
0.267861
0.267907
0.267931
0.272174
0.272187
0.272213
0.272252
0.272305
0.272371
0.272449
0.272538
0.272634
0.272736
0.272841
0.272948
0.273052
0.273152
0.273246
0.27333
0.273402
0.273459
0.273499
0.273519
0.2774
0.277417