# vtk DataFile Version 2.0
Pressure 3D1D coupled problem
ASCII
DATASET UNSTRUCTURED_GRID
POINTS 9261 float
0 0 0
0 0 0.1
0 0 0.2
0 0 0.3
0 0 0.4
0 0 0.5
0 0 0.6
0 0 0.7
0 0 0.8
0 0 0.9
0 0 1
0 0 1.1
0 0 1.2
0 0 1.3
0 0 1.4
0 0 1.5
0 0 1.6
0 0 1.7
0 0 1.8
0 0 1.9
0 0 2
0 0.1 0
0 0.1 0.1
0 0.1 0.2
0 0.1 0.3
0 0.1 0.4
0 0.1 0.5
0 0.1 0.6
0 0.1 0.7
0 0.1 0.8
0 0.1 0.9
0 0.1 1
0 0.1 1.1
0 0.1 1.2
0 0.1 1.3
0 0.1 1.4
0 0.1 1.5
0 0.1 1.6
0 0.1 1.7
0 0.1 1.8
0 0.1 1.9
0 0.1 2
0 0.2 0
0 0.2 0.1
0 0.2 0.2
0 0.2 0.3
0 0.2 0.4
0 0.2 0.5
0 0.2 0.6
0 0.2 0.7
0 0.2 0.8
0 0.2 0.9
0 0.2 1
0 0.2 1.1
0 0.2 1.2
0 0.2 1.3
0 0.2 1.4
0 0.2 1.5
0 0.2 1.6
0 0.2 1.7
0 0.2 1.8
0 0.2 1.9
0 0.2 2
0 0.3 0
0 0.3 0.1
0 0.3 0.2
0 0.3 0.3
0 0.3 0.4
0 0.3 0.5
0 0.3 0.6
0 0.3 0.7
0 0.3 0.8
0 0.3 0.9
0 0.3 1
0 0.3 1.1
0 0.3 1.2
0 0.3 1.3
0 0.3 1.4
0 0.3 1.5
0 0.3 1.6
0 0.3 1.7
0 0.3 1.8
0 0.3 1.9
0 0.3 2
0 0.4 0
0 0.4 0.1
0 0.4 0.2
0 0.4 0.3
0 0.4 0.4
0 0.4 0.5
0 0.4 0.6
0 0.4 0.7
0 0.4 0.8
0 0.4 0.9
0 0.4 1
0 0.4 1.1
0 0.4 1.2
0 0.4 1.3
0 0.4 1.4
0 0.4 1.5
0 0.4 1.6
0 0.4 1.7
0 0.4 1.8
0 0.4 1.9
0 0.4 2
0 0.5 0
0 0.5 0.1
0 0.5 0.2
0 0.5 0.3
0 0.5 0.4
0 0.5 0.5
0 0.5 0.6
0 0.5 0.7
0 0.5 0.8
0 0.5 0.9
0 0.5 1
0 0.5 1.1
0 0.5 1.2
0 0.5 1.3
0 0.5 1.4
0 0.5 1.5
0 0.5 1.6
0 0.5 1.7
0 0.5 1.8
0 0.5 1.9
0 0.5 2
0 0.6 0
0 0.6 0.1
0 0.6 0.2
0 0.6 0.3
0 0.6 0.4
0 0.6 0.5
0 0.6 0.6
0 0.6 0.7
0 0.6 0.8
0 0.6 0.9
0 0.6 1
0 0.6 1.1
0 0.6 1.2
0 0.6 1.3
0 0.6 1.4
0 0.6 1.5
0 0.6 1.6
0 0.6 1.7
0 0.6 1.8
0 0.6 1.9
0 0.6 2
0 0.7 0
0 0.7 0.1
0 0.7 0.2
0 0.7 0.3
0 0.7 0.4
0 0.7 0.5
0 0.7 0.6
0 0.7 0.7
0 0.7 0.8
0 0.7 0.9
0 0.7 1
0 0.7 1.1
0 0.7 1.2
0 0.7 1.3
0 0.7 1.4
0 0.7 1.5
0 0.7 1.6
0 0.7 1.7
0 0.7 1.8
0 0.7 1.9
0 0.7 2
0 0.8 0
0 0.8 0.1
0 0.8 0.2
0 0.8 0.3
0 0.8 0.4
0 0.8 0.5
0 0.8 0.6
0 0.8 0.7
0 0.8 0.8
0 0.8 0.9
0 0.8 1
0 0.8 1.1
0 0.8 1.2
0 0.8 1.3
0 0.8 1.4
0 0.8 1.5
0 0.8 1.6
0 0.8 1.7
0 0.8 1.8
0 0.8 1.9
0 0.8 2
0 0.9 0
0 0.9 0.1
0 0.9 0.2
0 0.9 0.3
0 0.9 0.4
0 0.9 0.5
0 0.9 0.6
0 0.9 0.7
0 0.9 0.8
0 0.9 0.9
0 0.9 1
0 0.9 1.1
0 0.9 1.2
0 0.9 1.3
0 0.9 1.4
0 0.9 1.5
0 0.9 1.6
0 0.9 1.7
0 0.9 1.8
0 0.9 1.9
0 0.9 2
0 1 0
0 1 0.1
0 1 0.2
0 1 0.3
0 1 0.4
0 1 0.5
0 1 0.6
0 1 0.7
0 1 0.8
0 1 0.9
0 1 1
0 1 1.1
0 1 1.2
0 1 1.3
0 1 1.4
0 1 1.5
0 1 1.6
0 1 1.7
0 1 1.8
0 1 1.9
0 1 2
0 1.1 0
0 1.1 0.1
0 1.1 0.2
0 1.1 0.3
0 1.1 0.4
0 1.1 0.5
0 1.1 0.6
0 1.1 0.7
0 1.1 0.8
0 1.1 0.9
0 1.1 1
0 1.1 1.1
0 1.1 1.2
0 1.1 1.3
0 1.1 1.4
0 1.1 1.5
0 1.1 1.6
0 1.1 1.7
0 1.1 1.8
0 1.1 1.9
0 1.1 2
0 1.2 0
0 1.2 0.1
0 1.2 0.2
0 1.2 0.3
0 1.2 0.4
0 1.2 0.5
0 1.2 0.6
0 1.2 0.7
0 1.2 0.8
0 1.2 0.9
0 1.2 1
0 1.2 1.1
0 1.2 1.2
0 1.2 1.3
0 1.2 1.4
0 1.2 1.5
0 1.2 1.6
0 1.2 1.7
0 1.2 1.8
0 1.2 1.9
0 1.2 2
0 1.3 0
0 1.3 0.1
0 1.3 0.2
0 1.3 0.3
0 1.3 0.4
0 1.3 0.5
0 1.3 0.6
0 1.3 0.7
0 1.3 0.8
0 1.3 0.9
0 1.3 1
0 1.3 1.1
0 1.3 1.2
0 1.3 1.3
0 1.3 1.4
0 1.3 1.5
0 1.3 1.6
0 1.3 1.7
0 1.3 1.8
0 1.3 1.9
0 1.3 2
0 1.4 0
0 1.4 0.1
0 1.4 0.2
0 1.4 0.3
0 1.4 0.4
0 1.4 0.5
0 1.4 0.6
0 1.4 0.7
0 1.4 0.8
0 1.4 0.9
0 1.4 1
0 1.4 1.1
0 1.4 1.2
0 1.4 1.3
0 1.4 1.4
0 1.4 1.5
0 1.4 1.6
0 1.4 1.7
0 1.4 1.8
0 1.4 1.9
0 1.4 2
0 1.5 0
0 1.5 0.1
0 1.5 0.2
0 1.5 0.3
0 1.5 0.4
0 1.5 0.5
0 1.5 0.6
0 1.5 0.7
0 1.5 0.8
0 1.5 0.9
0 1.5 1
0 1.5 1.1
0 1.5 1.2
0 1.5 1.3
0 1.5 1.4
0 1.5 1.5
0 1.5 1.6
0 1.5 1.7
0 1.5 1.8
0 1.5 1.9
0 1.5 2
0 1.6 0
0 1.6 0.1
0 1.6 0.2
0 1.6 0.3
0 1.6 0.4
0 1.6 0.5
0 1.6 0.6
0 1.6 0.7
0 1.6 0.8
0 1.6 0.9
0 1.6 1
0 1.6 1.1
0 1.6 1.2
0 1.6 1.3
0 1.6 1.4
0 1.6 1.5
0 1.6 1.6
0 1.6 1.7
0 1.6 1.8
0 1.6 1.9
0 1.6 2
0 1.7 0
0 1.7 0.1
0 1.7 0.2
0 1.7 0.3
0 1.7 0.4
0 1.7 0.5
0 1.7 0.6
0 1.7 0.7
0 1.7 0.8
0 1.7 0.9
0 1.7 1
0 1.7 1.1
0 1.7 1.2
0 1.7 1.3
0 1.7 1.4
0 1.7 1.5
0 1.7 1.6
0 1.7 1.7
0 1.7 1.8
0 1.7 1.9
0 1.7 2
0 1.8 0
0 1.8 0.1
0 1.8 0.2
0 1.8 0.3
0 1.8 0.4
0 1.8 0.5
0 1.8 0.6
0 1.8 0.7
0 1.8 0.8
0 1.8 0.9
0 1.8 1
0 1.8 1.1
0 1.8 1.2
0 1.8 1.3
0 1.8 1.4
0 1.8 1.5
0 1.8 1.6
0 1.8 1.7
0 1.8 1.8
0 1.8 1.9
0 1.8 2
0 1.9 0
0 1.9 0.1
0 1.9 0.2
0 1.9 0.3
0 1.9 0.4
0 1.9 0.5
0 1.9 0.6
0 1.9 0.7
0 1.9 0.8
0 1.9 0.9
0 1.9 1
0 1.9 1.1
0 1.9 1.2
0 1.9 1.3
0 1.9 1.4
0 1.9 1.5
0 1.9 1.6
0 1.9 1.7
0 1.9 1.8
0 1.9 1.9
0 1.9 2
0 2 0
0 2 0.1
0 2 0.2
0 2 0.3
0 2 0.4
0 2 0.5
0 2 0.6
0 2 0.7
0 2 0.8
0 2 0.9
0 2 1
0 2 1.1
0 2 1.2
0 2 1.3
0 2 1.4
0 2 1.5
0 2 1.6
0 2 1.7
0 2 1.8
0 2 1.9
0 2 2
0.1 0 0
0.1 0 0.1
0.1 0 0.2
0.1 0 0.3
0.1 0 0.4
0.1 0 0.5
0.1 0 0.6
0.1 0 0.7
0.1 0 0.8
0.1 0 0.9
0.1 0 1
0.1 0 1.1
0.1 0 1.2
0.1 0 1.3
0.1 0 1.4
0.1 0 1.5
0.1 0 1.6
0.1 0 1.7
0.1 0 1.8
0.1 0 1.9
0.1 0 2
0.1 0.1 0
0.1 0.1 0.1
0.1 0.1 0.2
0.1 0.1 0.3
0.1 0.1 0.4
0.1 0.1 0.5
0.1 0.1 0.6
0.1 0.1 0.7
0.1 0.1 0.8
0.1 0.1 0.9
0.1 0.1 1
0.1 0.1 1.1
0.1 0.1 1.2
0.1 0.1 1.3
0.1 0.1 1.4
0.1 0.1 1.5
0.1 0.1 1.6
0.1 0.1 1.7
0.1 0.1 1.8
0.1 0.1 1.9
0.1 0.1 2
0.1 0.2 0
0.1 0.2 0.1
0.1 0.2 0.2
0.1 0.2 0.3
0.1 0.2 0.4
0.1 0.2 0.5
0.1 0.2 0.6
0.1 0.2 0.7
0.1 0.2 0.8
0.1 0.2 0.9
0.1 0.2 1
0.1 0.2 1.1
0.1 0.2 1.2
0.1 0.2 1.3
0.1 0.2 1.4
0.1 0.2 1.5
0.1 0.2 1.6
0.1 0.2 1.7
0.1 0.2 1.8
0.1 0.2 1.9
0.1 0.2 2
0.1 0.3 0
0.1 0.3 0.1
0.1 0.3 0.2
0.1 0.3 0.3
0.1 0.3 0.4
0.1 0.3 0.5
0.1 0.3 0.6
0.1 0.3 0.7
0.1 0.3 0.8
0.1 0.3 0.9
0.1 0.3 1
0.1 0.3 1.1
0.1 0.3 1.2
0.1 0.3 1.3
0.1 0.3 1.4
0.1 0.3 1.5
0.1 0.3 1.6
0.1 0.3 1.7
0.1 0.3 1.8
0.1 0.3 1.9
0.1 0.3 2
0.1 0.4 0
0.1 0.4 0.1
0.1 0.4 0.2
0.1 0.4 0.3
0.1 0.4 0.4
0.1 0.4 0.5
0.1 0.4 0.6
0.1 0.4 0.7
0.1 0.4 0.8
0.1 0.4 0.9
0.1 0.4 1
0.1 0.4 1.1
0.1 0.4 1.2
0.1 0.4 1.3
0.1 0.4 1.4
0.1 0.4 1.5
0.1 0.4 1.6
0.1 0.4 1.7
0.1 0.4 1.8
0.1 0.4 1.9
0.1 0.4 2
0.1 0.5 0
0.1 0.5 0.1
0.1 0.5 0.2
0.1 0.5 0.3
0.1 0.5 0.4
0.1 0.5 0.5
0.1 0.5 0.6
0.1 0.5 0.7
0.1 0.5 0.8
0.1 0.5 0.9
0.1 0.5 1
0.1 0.5 1.1
0.1 0.5 1.2
0.1 0.5 1.3
0.1 0.5 1.4
0.1 0.5 1.5
0.1 0.5 1.6
0.1 0.5 1.7
0.1 0.5 1.8
0.1 0.5 1.9
0.1 0.5 2
0.1 0.6 0
0.1 0.6 0.1
0.1 0.6 0.2
0.1 0.6 0.3
0.1 0.6 0.4
0.1 0.6 0.5
0.1 0.6 0.6
0.1 0.6 0.7
0.1 0.6 0.8
0.1 0.6 0.9
0.1 0.6 1
0.1 0.6 1.1
0.1 0.6 1.2
0.1 0.6 1.3
0.1 0.6 1.4
0.1 0.6 1.5
0.1 0.6 1.6
0.1 0.6 1.7
0.1 0.6 1.8
0.1 0.6 1.9
0.1 0.6 2
0.1 0.7 0
0.1 0.7 0.1
0.1 0.7 0.2
0.1 0.7 0.3
0.1 0.7 0.4
0.1 0.7 0.5
0.1 0.7 0.6
0.1 0.7 0.7
0.1 0.7 0.8
0.1 0.7 0.9
0.1 0.7 1
0.1 0.7 1.1
0.1 0.7 1.2
0.1 0.7 1.3
0.1 0.7 1.4
0.1 0.7 1.5
0.1 0.7 1.6
0.1 0.7 1.7
0.1 0.7 1.8
0.1 0.7 1.9
0.1 0.7 2
0.1 0.8 0
0.1 0.8 0.1
0.1 0.8 0.2
0.1 0.8 0.3
0.1 0.8 0.4
0.1 0.8 0.5
0.1 0.8 0.6
0.1 0.8 0.7
0.1 0.8 0.8
0.1 0.8 0.9
0.1 0.8 1
0.1 0.8 1.1
0.1 0.8 1.2
0.1 0.8 1.3
0.1 0.8 1.4
0.1 0.8 1.5
0.1 0.8 1.6
0.1 0.8 1.7
0.1 0.8 1.8
0.1 0.8 1.9
0.1 0.8 2
0.1 0.9 0
0.1 0.9 0.1
0.1 0.9 0.2
0.1 0.9 0.3
0.1 0.9 0.4
0.1 0.9 0.5
0.1 0.9 0.6
0.1 0.9 0.7
0.1 0.9 0.8
0.1 0.9 0.9
0.1 0.9 1
0.1 0.9 1.1
0.1 0.9 1.2
0.1 0.9 1.3
0.1 0.9 1.4
0.1 0.9 1.5
0.1 0.9 1.6
0.1 0.9 1.7
0.1 0.9 1.8
0.1 0.9 1.9
0.1 0.9 2
0.1 1 0
0.1 1 0.1
0.1 1 0.2
0.1 1 0.3
0.1 1 0.4
0.1 1 0.5
0.1 1 0.6
0.1 1 0.7
0.1 1 0.8
0.1 1 0.9
0.1 1 1
0.1 1 1.1
0.1 1 1.2
0.1 1 1.3
0.1 1 1.4
0.1 1 1.5
0.1 1 1.6
0.1 1 1.7
0.1 1 1.8
0.1 1 1.9
0.1 1 2
0.1 1.1 0
0.1 1.1 0.1
0.1 1.1 0.2
0.1 1.1 0.3
0.1 1.1 0.4
0.1 1.1 0.5
0.1 1.1 0.6
0.1 1.1 0.7
0.1 1.1 0.8
0.1 1.1 0.9
0.1 1.1 1
0.1 1.1 1.1
0.1 1.1 1.2
0.1 1.1 1.3
0.1 1.1 1.4
0.1 1.1 1.5
0.1 1.1 1.6
0.1 1.1 1.7
0.1 1.1 1.8
0.1 1.1 1.9
0.1 1.1 2
0.1 1.2 0
0.1 1.2 0.1
0.1 1.2 0.2
0.1 1.2 0.3
0.1 1.2 0.4
0.1 1.2 0.5
0.1 1.2 0.6
0.1 1.2 0.7
0.1 1.2 0.8
0.1 1.2 0.9
0.1 1.2 1
0.1 1.2 1.1
0.1 1.2 1.2
0.1 1.2 1.3
0.1 1.2 1.4
0.1 1.2 1.5
0.1 1.2 1.6
0.1 1.2 1.7
0.1 1.2 1.8
0.1 1.2 1.9
0.1 1.2 2
0.1 1.3 0
0.1 1.3 0.1
0.1 1.3 0.2
0.1 1.3 0.3
0.1 1.3 0.4
0.1 1.3 0.5
0.1 1.3 0.6
0.1 1.3 0.7
0.1 1.3 0.8
0.1 1.3 0.9
0.1 1.3 1
0.1 1.3 1.1
0.1 1.3 1.2
0.1 1.3 1.3
0.1 1.3 1.4
0.1 1.3 1.5
0.1 1.3 1.6
0.1 1.3 1.7
0.1 1.3 1.8
0.1 1.3 1.9
0.1 1.3 2
0.1 1.4 0
0.1 1.4 0.1
0.1 1.4 0.2
0.1 1.4 0.3
0.1 1.4 0.4
0.1 1.4 0.5
0.1 1.4 0.6
0.1 1.4 0.7
0.1 1.4 0.8
0.1 1.4 0.9
0.1 1.4 1
0.1 1.4 1.1
0.1 1.4 1.2
0.1 1.4 1.3
0.1 1.4 1.4
0.1 1.4 1.5
0.1 1.4 1.6
0.1 1.4 1.7
0.1 1.4 1.8
0.1 1.4 1.9
0.1 1.4 2
0.1 1.5 0
0.1 1.5 0.1
0.1 1.5 0.2
0.1 1.5 0.3
0.1 1.5 0.4
0.1 1.5 0.5
0.1 1.5 0.6
0.1 1.5 0.7
0.1 1.5 0.8
0.1 1.5 0.9
0.1 1.5 1
0.1 1.5 1.1
0.1 1.5 1.2
0.1 1.5 1.3
0.1 1.5 1.4
0.1 1.5 1.5
0.1 1.5 1.6
0.1 1.5 1.7
0.1 1.5 1.8
0.1 1.5 1.9
0.1 1.5 2
0.1 1.6 0
0.1 1.6 0.1
0.1 1.6 0.2
0.1 1.6 0.3
0.1 1.6 0.4
0.1 1.6 0.5
0.1 1.6 0.6
0.1 1.6 0.7
0.1 1.6 0.8
0.1 1.6 0.9
0.1 1.6 1
0.1 1.6 1.1
0.1 1.6 1.2
0.1 1.6 1.3
0.1 1.6 1.4
0.1 1.6 1.5
0.1 1.6 1.6
0.1 1.6 1.7
0.1 1.6 1.8
0.1 1.6 1.9
0.1 1.6 2
0.1 1.7 0
0.1 1.7 0.1
0.1 1.7 0.2
0.1 1.7 0.3
0.1 1.7 0.4
0.1 1.7 0.5
0.1 1.7 0.6
0.1 1.7 0.7
0.1 1.7 0.8
0.1 1.7 0.9
0.1 1.7 1
0.1 1.7 1.1
0.1 1.7 1.2
0.1 1.7 1.3
0.1 1.7 1.4
0.1 1.7 1.5
0.1 1.7 1.6
0.1 1.7 1.7
0.1 1.7 1.8
0.1 1.7 1.9
0.1 1.7 2
0.1 1.8 0
0.1 1.8 0.1
0.1 1.8 0.2
0.1 1.8 0.3
0.1 1.8 0.4
0.1 1.8 0.5
0.1 1.8 0.6
0.1 1.8 0.7
0.1 1.8 0.8
0.1 1.8 0.9
0.1 1.8 1
0.1 1.8 1.1
0.1 1.8 1.2
0.1 1.8 1.3
0.1 1.8 1.4
0.1 1.8 1.5
0.1 1.8 1.6
0.1 1.8 1.7
0.1 1.8 1.8
0.1 1.8 1.9
0.1 1.8 2
0.1 1.9 0
0.1 1.9 0.1
0.1 1.9 0.2
0.1 1.9 0.3
0.1 1.9 0.4
0.1 1.9 0.5
0.1 1.9 0.6
0.1 1.9 0.7
0.1 1.9 0.8
0.1 1.9 0.9
0.1 1.9 1
0.1 1.9 1.1
0.1 1.9 1.2
0.1 1.9 1.3
0.1 1.9 1.4
0.1 1.9 1.5
0.1 1.9 1.6
0.1 1.9 1.7
0.1 1.9 1.8
0.1 1.9 1.9
0.1 1.9 2
0.1 2 0
0.1 2 0.1
0.1 2 0.2
0.1 2 0.3
0.1 2 0.4
0.1 2 0.5
0.1 2 0.6
0.1 2 0.7
0.1 2 0.8
0.1 2 0.9
0.1 2 1
0.1 2 1.1
0.1 2 1.2
0.1 2 1.3
0.1 2 1.4
0.1 2 1.5
0.1 2 1.6
0.1 2 1.7
0.1 2 1.8
0.1 2 1.9
0.1 2 2
0.2 0 0
0.2 0 0.1
0.2 0 0.2
0.2 0 0.3
0.2 0 0.4
0.2 0 0.5
0.2 0 0.6
0.2 0 0.7
0.2 0 0.8
0.2 0 0.9
0.2 0 1
0.2 0 1.1
0.2 0 1.2
0.2 0 1.3
0.2 0 1.4
0.2 0 1.5
0.2 0 1.6
0.2 0 1.7
0.2 0 1.8
0.2 0 1.9
0.2 0 2
0.2 0.1 0
0.2 0.1 0.1
0.2 0.1 0.2
0.2 0.1 0.3
0.2 0.1 0.4
0.2 0.1 0.5
0.2 0.1 0.6
0.2 0.1 0.7
0.2 0.1 0.8
0.2 0.1 0.9
0.2 0.1 1
0.2 0.1 1.1
0.2 0.1 1.2
0.2 0.1 1.3
0.2 0.1 1.4
0.2 0.1 1.5
0.2 0.1 1.6
0.2 0.1 1.7
0.2 0.1 1.8
0.2 0.1 1.9
0.2 0.1 2
0.2 0.2 0
0.2 0.2 0.1
0.2 0.2 0.2
0.2 0.2 0.3
0.2 0.2 0.4
0.2 0.2 0.5
0.2 0.2 0.6
0.2 0.2 0.7
0.2 0.2 0.8
0.2 0.2 0.9
0.2 0.2 1
0.2 0.2 1.1
0.2 0.2 1.2
0.2 0.2 1.3
0.2 0.2 1.4
0.2 0.2 1.5
0.2 0.2 1.6
0.2 0.2 1.7
0.2 0.2 1.8
0.2 0.2 1.9
[...]
CELL_DATA 8000
SCALARS Phi_sigma_(3D) float 1
LOOKUP_TABLE default
0.0634424
0.0629226
0.0623538
0.0619416
0.0616234
0.0613924
0.0612394
0.0611396
0.0610984
0.0610742
0.0610686
0.0610847
0.0611499
0.0612864
0.0614766
0.0617073
0.0620093
0.0624233
0.062979
0.0634861
0.0639416
0.0631792
0.0625025
0.0621199
0.0618029
0.0615738
0.0614324
0.0613302
0.0613106
0.0612851
0.0612768
0.0612788
0.061334
0.0614808
0.0616784
0.0618936
0.0621764
0.062579
0.0632351
0.0639762
0.0660719
0.065328
0.0646743
0.064321
0.0640358
0.0638432
0.0637202
0.0636158
0.0635937
0.0635752
0.0635859
0.0635887
0.0636302
0.0637613
0.0639503
0.0641649
0.064425
0.0647841
0.0654102
0.0661667
0.069997
0.0695866
0.0691398
0.0688325
0.0686082
0.0684647
0.0683606
0.0682716
0.0682328
0.0682257
0.0682542
0.0682757
0.0683174
0.0684173
0.0685753
0.0687801
0.0690115
0.069304
0.0697332
0.0701839
0.0745569
0.0743515
0.0740907
0.0738739
0.0737078
0.0735913
0.0735079
0.0734475
0.0734189
0.0734171
0.0734391
0.0734712
0.0735232
0.0736114
0.0737381
0.0738983
0.0740842
0.0743051
0.0745675
0.0747898
0.0791882
0.0790852
0.0789388
0.0787997
0.0786852
0.0785997
0.0785393
0.0785003
0.0784838
0.0784877
0.0785095
0.0785454
0.0785989
0.0786757
0.0787769
0.0788997
0.0790397
0.0791942
0.0793508
0.0794632
0.083739
0.0836862
0.0836049
0.0835207
0.0834473
0.0833909
0.083352
0.0833299
0.0833246
0.0833346
0.0833585
0.0833953
0.0834458
0.0835116
0.0835926
0.0836863
0.0837889
0.0838942
0.0839897
0.0840507
0.0881773
0.08815
0.088106
0.088058
0.0880152
0.0879827
0.0879622
0.0879543
0.0879586
0.0879744
0.0880009
0.0880373
0.0880836
0.0881398
0.0882049
0.0882768
0.0883517
0.088424
0.0884846
0.0885205
0.0924961
0.0924827
0.0924606
0.0924364
0.0924155
0.0924015
0.0923961
0.0923998
0.0924124
0.0924334
0.0924622
0.0924981
0.0925404
0.0925887
0.0926418
0.0926976
0.092753
0.0928038
0.092844
0.0928667
0.0966843
0.0966789
0.0966703
0.0966619
0.0966567
0.0966568
0.0966632
0.0966764
0.0966961
0.0967216
0.0967525
0.0967878
0.096827
0.0968692
0.0969132
0.0969574
0.0969994
0.0970363
0.0970642
0.0970794
0.100719
0.100719
0.100719
0.100721
0.100727
0.100738
0.100754
0.100775
0.1008
0.10083
0.100862
0.100897
0.100934
0.100972
0.101009
0.101045
0.101078
0.101106
0.101126
0.101137
0.104566
0.104569
0.104575
0.104585
0.104599
0.104618
0.104641
0.104668
0.104699
0.104731
0.104766
0.104801
0.104836
0.10487
0.104903
0.104933
0.10496
0.104981
0.104997
0.105005
0.108182
0.108187
0.108197
0.108212
0.108233
0.108257
0.108286
0.108319
0.108353
0.108389
0.108425
0.10846
0.108494
0.108526
0.108555
0.108581
0.108603
0.108621
0.108633
0.108639
0.111515
0.111521
0.111534
0.111554
0.111578
0.111608
0.111642
0.111678
0.111716
0.111754
0.111791
0.111827
0.11186
0.11189
0.111917
0.11194
0.111959
0.111974
0.111984
0.111989
0.11451
0.114517
0.114533
0.114555
0.114584
0.114617
0.114655
0.114694
0.114735
0.114775
0.114813
0.114849
0.114882
0.114911
0.114936
0.114957
0.114973
0.114986
0.114995
0.114999
0.117112
0.117121
0.117138
0.117163
0.117194
0.117231
0.117271
0.117313
0.117356
0.117398
0.117437
0.117473
0.117506
0.117534
0.117557
0.117577
0.117592
0.117603
0.11761
0.117614
0.119269
0.119278
0.119297
0.119323
0.119357
0.119396
0.119438
0.119483
0.119527
0.11957
0.11961
0.119647
0.119679
0.119706
0.119729
0.119747
0.119761
0.119771
0.119778
0.119781
0.120934
0.120943
0.120963
0.120991
0.121026
0.121066
0.12111
0.121156
0.121202
0.121246
0.121287
0.121323
0.121355
0.121382
0.121404
0.121422
0.121435
0.121444
0.12145
0.121453
0.122067
0.122077
0.122097
0.122126
0.122162
0.122203
0.122249
0.122296
0.122342
0.122387
0.122428
0.122465
0.122496
0.122523
0.122545
0.122561
0.122574
0.122583
0.122588
0.122591
0.122641
0.122652
0.122672
0.122701
0.122738
0.12278
0.122826
0.122873
0.12292
0.122965
0.123006
0.123043
0.123075
0.123101
0.123122
0.123139
0.123151
0.12316
0.123165
0.123168
0.0639972
0.0632462
0.0625759
0.0621942
0.0618794
0.0616536
0.061513
0.0614094
0.0613879
0.061363
0.0613573
0.0613602
0.061414
0.0615588
0.0617562
0.0619736
0.0622561
0.0626551
0.0633044
0.0640389
0.0636142
0.0617388
0.060718
0.0605604
0.0601881
0.059923
0.0598223
0.0596752
0.0597679
0.0597108
0.0596877
0.0596317
0.0596525
0.0598674
0.0601155
0.0602679
0.0605037
0.0608077
0.0617668
0.0635572
0.0655844
0.0636876
0.0626341
0.0624935
0.062152
0.0619685
0.0618942
0.0617075
0.0617775
0.0617288
0.0617776
0.0617161
0.0616926
0.0618715
0.0621164
0.0623221
0.0625366
0.0627528
0.0636863
0.0656555
0.0703682
0.0697101
0.0691054
0.0688076
0.0685861
0.0685039
0.0684207
0.0682823
0.0682348
0.0682296
0.0683238
0.0683263
0.0683197
0.0684009
0.0685715
0.0688317
0.0690468
0.0692709
0.0697879
0.0706333
0.0753135
0.0750592
0.0747696
0.0745573
0.0743968
0.0742915
0.0742145
0.0741515
0.0741254
0.0741255
0.0741547
0.0741832
0.0742283
0.0743138
0.0744404
0.0746018
0.0747795
0.07499
0.075274
0.0755608
0.0800194
0.0799086
0.0797597
0.0796251
0.0795156
0.0794349
0.0793783
0.0793419
0.0793281
0.0793335
0.0793562
0.0793915
0.0794437
0.0795193
0.0796184
0.0797375
0.0798724
0.0800224
0.0801812
0.0803027
0.0845724
0.0845195
0.0844402
0.0843598
0.0842904
0.0842374
0.0842016
0.0841821
0.0841789
0.0841901
0.0842147
0.0842514
0.0843014
0.0843663
0.0844453
0.0845361
0.0846352
0.0847373
0.0848311
0.0848924
0.089009
0.0889827
0.0889409
0.0888958
0.088856
0.0888263
0.0888083
0.0888025
0.0888086
0.0888256
0.0888528
0.0888894
0.0889355
0.0889909
0.0890546
0.0891244
0.089197
0.089267
0.0893258
0.0893609
0.0933395
0.093327
0.0933066
0.0932846
0.0932661
0.0932544
0.0932511
0.0932567
0.0932709
0.0932931
0.0933226
0.0933588
0.0934011
0.0934488
0.0935009
0.0935553
0.0936092
0.0936585
0.0936974
0.0937194
0.0975547
0.09755
0.0975428
0.0975362
0.0975329
0.097535
0.0975434
0.0975584
0.0975795
0.0976062
0.0976378
0.0976736
0.0977128
0.0977547
0.097798
0.0978413
0.0978823
0.097918
0.0979451
0.0979599
0.10163
0.10163
0.101631
0.101635
0.101643
0.101655
0.101673
0.101696
0.101723
0.101753
0.101787
0.101823
0.101859
0.101897
0.101934
0.101969
0.102001
0.102028
0.102048
0.102058
0.105527
0.10553
0.105537
0.105548
0.105564
0.105585
0.10561
0.105639
0.105671
0.105705
0.10574
0.105776
0.105811
0.105845
0.105878
0.105907
0.105933
0.105954
0.105969
0.105977
0.109198
0.109204
0.109215
0.109232
0.109254
0.109281
0.109312
0.109346
0.109382
0.109419
0.109456
0.109492
0.109526
0.109558
0.109587
0.109612
0.109634
0.109651
0.109663
0.109669
0.11259
0.112597
0.112612
0.112632
0.112659
0.112691
0.112727
0.112765
0.112805
0.112844
0.112883
0.112919
0.112953
0.112983
0.113009
0.113032
0.11305
0.113064
0.113074
0.113079
0.115644
0.115653
0.115669
0.115693
0.115724
0.11576
0.115799
0.115841
0.115884
0.115925
0.115965
0.116002
0.116035
0.116064
0.116088
0.116109
0.116125
0.116137
0.116145
0.116149
0.118302
0.118311
0.11833
0.118356
0.11839
0.118429
0.118472
0.118516
0.118561
0.118604
0.118645
0.118682
0.118715
0.118743
0.118766
0.118785
0.118799
0.11881
0.118817
0.11882
0.120507
0.120517
0.120537
0.120566
0.120602
0.120643
0.120688
0.120735
0.120782
0.120827
0.120868
0.120905
0.120938
0.120965
0.120987
0.121005
0.121018
0.121028
0.121034
0.121037
0.122211
0.122222
0.122242
0.122272
0.12231
0.122353
0.1224
0.122449
0.122497
0.122542
0.122585
0.122622
0.122654
0.122681
0.122703
0.122719
0.122732
0.12274
0.122746
0.122748
0.123372
0.123383
0.123404
0.123435
0.123474
0.123518
0.123566
0.123616
0.123665
0.123711
0.123754
0.123792
0.123824
0.12385
0.123871
0.123887
0.123899
0.123907
0.123912
0.123915
0.12396
0.123972
0.123993
0.124024
0.124064
0.124109
0.124157
0.124208
0.124257
0.124304
0.124347
0.124384
0.124416
0.124443
0.124463
0.124479
0.12449
0.124498
0.124503
0.124506
0.0662286
0.0655351
0.0649009
0.0645442
0.0642659
0.0640865
0.0639656
0.0638555
0.0638242
0.0638084
0.0638306
0.0638365
0.0638725
0.0639949
0.0641825
0.0644084
0.064669
0.0650169
0.0656189
0.0663493
0.0657403
0.0640362
0.0629967
0.0627987
0.0624772
0.0623571
0.062287
0.0620702
0.0620934
0.0620561
0.0621664
0.0621116
0.0620592
0.0621981
0.0624375
0.0627123
0.0629334
0.0631183
0.063996
0.0659178
0.0678319
0.0660666
0.0650811
0.0649528
0.0646429
0.0644737
0.0644065
0.0642391
0.0643084
0.0642667
0.0643106
0.064255
0.0642372
0.064408
0.0646375
0.0648248
0.0650194
0.065223
0.066103
0.0679317
0.0725024
0.071707
0.0712061
0.0710309
0.0708037
0.0705902
0.070498
0.0704588
0.0705074
0.070487
0.0704304
0.070432
0.0705068
0.0706659
0.0708249
0.0709083
0.0710931
0.07139
0.0719259
0.072572
0.0771996
0.0769356
0.0766773
0.0765012
0.0763513
0.0762333
0.0761608
0.0761214
0.0761167
0.0761155
0.076121
0.076148
0.0762071
0.0763038
0.0764207
0.0765442
0.0767035
0.0769114
0.0771815
0.0774275
0.08177
0.0816643
0.0815303
0.0814122
0.0813133
0.0812376
0.0811875
0.08116
0.0811536
0.0811608
0.0811805
0.0812154
0.0812694
0.0813448
0.0814375
0.0815438
0.0816671
0.0818074
0.0819545
0.0820633
0.086249
0.0862007
0.0861299
0.0860591
0.0859979
0.0859513
0.0859213
0.0859073
0.0859083
0.0859218
0.0859469
0.0859838
0.0860335
0.0860965
0.0861713
0.0862555
0.0863473
0.0864419
0.0865284
0.0865841
0.0906629
0.0906396
0.090603
0.0905642
0.0905306
0.0905063
0.0904932
0.0904917
0.0905011
0.0905204
0.0905487
0.0905858
0.0906314
0.0906852
0.0907461
0.0908118
0.0908797
0.0909448
0.0909992
0.0910314
0.0950141
0.0950035
0.0949868
0.0949692
0.0949555
0.0949483
0.0949492
0.0949585
0.0949757
0.0950001
0.095031
0.0950678
0.0951099
0.0951566
0.0952067
0.0952584
0.0953092
0.0953553
0.0953915
0.0954119
0.0992851
0.0992819
0.0992774
0.0992743
0.099275
0.0992811
0.0992933
0.0993117
0.0993357
0.0993647
0.0993979
0.0994345
0.0994737
0.0995149
0.0995569
0.0995983
0.0996371
0.0996708
0.0996961
0.0997099
0.103443
0.103445
0.103448
0.103455
0.103466
0.103483
0.103504
0.10353
0.10356
0.103593
0.103628
0.103665
0.103702
0.103739
0.103775
0.103809
0.10384
0.103865
0.103883
0.103893
0.107443
0.107448
0.107457
0.107471
0.10749
0.107515
0.107544
0.107576
0.107611
0.107648
0.107685
0.107722
0.107758
0.107792
0.107823
0.107852
0.107876
0.107896
0.10791
0.107917
0.11123
0.111237
0.11125
0.11127
0.111296
0.111327
0.111362
0.1114
0.111439
0.111479
0.111518
0.111555
0.11159
0.111621
0.11165
0.111674
0.111694
0.11171
0.111721
0.111727
0.114744
0.114752
0.114769
0.114793
0.114823
0.11486
0.1149
0.114942
0.114985
0.115028
0.115068
0.115106
0.11514
0.11517
0.115196
0.115217
0.115235
0.115247
0.115256
0.115261
0.117918
0.117928
0.117947
0.117975
0.11801
0.11805
0.118094
0.118141
0.118187
0.118232
0.118274
0.118312
0.118346
0.118374
0.118398
0.118417
0.118432
0.118443
0.11845
0.118454
0.120689
0.1207
0.120721
0.120752
0.12079
0.120834
0.120882
0.120931
0.12098
0.121027
0.12107
0.121109
0.121142
0.12117
0.121192
0.121209
0.121222
0.121232
0.121237
0.12124
0.122995
0.123006
0.123029
0.123061
0.123102
0.123149
0.1232
0.123252
0.123303
0.123351
0.123395
0.123434
0.123467
0.123494
0.123516
0.123532
0.123543
0.123551
0.123556
0.123558
0.124779
0.124791
0.124815
0.124849
0.124892
0.12494
0.124993
0.125047
0.1251
0.125149
0.125194
0.125234
0.125266
0.125293
0.125313
0.125328
0.125339
0.125345
0.12535
0.125352
0.125996
0.126008
0.126033
0.126068
0.126112
0.126163
0.126217
0.126272
0.126326
0.126376
0.126422
0.126461
0.126494
0.12652
0.126539
0.126554
0.126563
0.12657
0.126573
0.126575
0.126614
0.126626
0.126651
0.126687
0.126732
0.126783
0.126838
0.126893
0.126948
0.126999
0.127044
0.127084
0.127116
0.127142
0.127161
0.127175
0.127185
0.127191
0.127194
0.127196
0.0702089
0.0698272
0.0694112
0.0691164
0.0688944
0.0687413
0.0686354
0.0685561
0.0685234
0.0685148
0.0685313
0.0685542
0.0686048
0.06871
0.068864
0.0690543
0.0692821
0.0695768
0.0699854
0.0703828
0.0706532
0.0700447
0.0695174
0.0692435
0.0690213
0.0688812
0.0687872
0.0686945
0.0686746
0.0686659
0.0686943
0.0687037
0.0687366
0.0688453
0.069009
0.0692013
0.0694139
0.069687
0.070188
0.0708368
0.0724127
0.0716152
0.0710548
0.0708527
0.0706337
0.0704943
0.070416
0.0703239
0.0703345
0.0703203
0.070344
0.0703415
0.0703701
0.0704914
0.0706557
0.0708206
0.071008
0.0712414
0.0717683
0.0725911
0.0760383
0.0756606
0.0753262
0.0751314
0.0749634
0.0748336
0.0747568
0.0747116
0.0747117
0.0747081
0.0747109
0.0747314
0.0747882
0.0748935
0.0750206
0.0751497
0.0753179
0.0755476
0.0758891
0.0762465
0.0801268
0.0799602
0.0797725
0.079626
0.0795055
0.0794132
0.0793542
0.0793227
0.079317
0.0793215
0.0793364
0.0793683
0.0794246
0.0795084
0.0796107
0.0797255
0.0798647
0.0800354
0.0802349
0.0803986
0.0843849
0.0843079
0.0842046
0.0841092
0.0840289
0.0839679
0.0839284
0.083909
0.0839075
0.0839185
0.0839412
0.0839774
0.08403
0.0840996
0.0841834
0.0842786
0.0843866
0.0845054
0.0846233
0.0847055
0.088721
0.0886836
0.0886279
0.0885713
0.0885227
0.0884867
0.0884651
0.0884579
0.0884639
0.0884809
0.0885081
0.0885456
0.0885941
0.0886536
0.0887223
0.0887984
0.0888799
0.088962
0.0890349
0.0890804
0.0930987
0.0930807
0.0930524
0.0930228
0.0929981
0.0929819
0.0929759
0.0929801
0.0929941
0.0930167
0.093047
0.0930847
0.0931296
0.093181
0.0932377
0.0932979
0.0933591
0.0934167
0.0934641
0.0934916
0.0974877
0.0974803
0.0974688
0.0974578
0.0974509
0.0974504
0.0974573
0.0974719
0.0974934
0.097521
0.097554
0.0975917
0.0976334
0.0976785
0.0977258
0.0977737
0.09782
0.0978615
0.0978937
0.0979116
0.101851
0.10185
0.10185
0.101852
0.101858
0.10187
0.101888
0.101911
0.10194
0.101972
0.102007
0.102045
0.102084
0.102125
0.102165
0.102203
0.102239
0.10227
0.102292
0.102305
0.106142
0.106146
0.106153
0.106164
0.106181
0.106203
0.10623
0.106261
0.106295
0.106332
0.106369
0.106407
0.106445
0.106481
0.106516
0.106548
0.106576
0.106599
0.106615
0.106624
0.110305
0.110311
0.110323
0.110342
0.110367
0.110397
0.110432
0.110469
0.110509
0.11055
0.110589
0.110628
0.110664
0.110698
0.110728
0.110755
0.110777
0.110795
0.110807
0.110814
0.114273
0.114282
0.114299
0.114323
0.114354
0.114391
0.114433
0.114476
0.114521
0.114565
0.114607
0.114646
0.114681
0.114712
0.114739
0.114762
0.11478
0.114794
0.114804
0.114808
0.117977
0.117987
0.118007
0.118037
0.118073
0.118116
0.118163
0.118212
0.118261
0.118308
0.118351
0.118391
0.118426
0.118455
0.11848
0.118499
0.118514
0.118525
0.118533
0.118536
0.12134
0.121352
0.121375
0.121408
0.12145
0.121498
0.121549
0.121603
0.121655
0.121705
0.12175
0.121791
0.121825
0.121853
0.121875
0.121892
0.121905
0.121913
0.121919
0.121921
0.124289
0.124302
0.124327
0.124364
0.124409
0.124461
0.124517
0.124574
0.124629
0.124682
0.124729
0.124769
0.124803
0.12483
0.124851
0.124866
0.124876
0.124883
0.124887
0.124889
0.12675
0.126764
0.126792
0.126831
0.126879
0.126935
0.126994
0.127054
0.127112
0.127166
0.127214
0.127256
0.127289
0.127315
0.127334
0.127348
0.127356
0.127361
0.127364
0.127365
0.12866
0.128675
0.128704
0.128745
0.128796
0.128854
0.128916
0.128978
0.129038
0.129094
0.129143
0.129185
0.129218
0.129243
0.129261
0.129273
0.12928
0.129284
0.129286
0.129287
0.129966
0.129982
0.130012
0.130054
0.130107
0.130166
0.13023
0.130294
0.130355
0.130412
0.130461
0.130503
0.130536
0.130561
0.130578
0.130589
0.130596
0.130599
0.1306
0.1306
0.13063
0.130645
0.130676
0.130719
0.130773
0.130833
0.130897
0.130962
0.131024
0.131081
0.131131
0.131173
0.131206
0.13123
0.131247
0.131258
0.131264
0.131266
0.131267
0.131268
0.0747228
0.0745302
0.0742854
0.0740776
0.0739137
0.073794
0.0737101
0.0736542
0.0736289
0.0736261
0.0736432
0.0736754
0.0737314
0.0738219
0.0739458
0.0740986
0.0742804
0.0744984
0.0747481
0.0749484
0.0754649
0.0752252
0.0749551
0.0747519
0.0745927
0.074479
0.0744005
0.0743456
0.0743248
0.0743236
0.0743426
0.0743718
0.0744238
0.0745139
0.0746376
0.0747867
0.0749614
0.075175
0.0754477
0.0756985
0.0772324
0.0769698
0.0767043
0.0765245
0.0763783
0.0762735
0.0762042
0.0761561
0.0761443
0.0761451
0.0761636
0.0761908
0.0762416
0.076331
0.076449
0.076585
0.0767443
0.076941
0.0772095
0.0774801
0.0801422
0.0799757
0.0797867
0.0796396
0.0795203
0.0794308
0.0793726
0.0793395
0.0793323
0.0793373
0.0793546
0.0793867
0.0794412
0.0795234
0.079626
0.079743
0.0798822
0.0800508
0.0802504
0.0804184
0.0837164
0.0836247
0.0835057
0.0833996
0.0833117
0.0832454
0.0832025
0.0831809
0.0831784
0.0831886
0.0832106
0.0832464
0.0832996
0.0833717
0.083459
0.0835588
0.0836733
0.0838024
0.0839354
0.0840318
0.0876767
0.0876279
0.0875577
0.0874889
0.0874306
0.0873872
0.0873606
0.0873503
0.0873545
0.0873702
0.0873966
0.0874342
0.0874844
0.0875472
0.0876208
0.0877033
0.0877935
0.0878875
0.0879742
0.0880305
0.09188
0.0918548
0.0918161
0.0917763
0.0917427
0.0917195
0.0917083
0.0917091
0.0917209
0.0917423
0.0917721
0.0918104
0.0918573
0.0919122
0.091974
0.0920408
0.0921102
0.0921778
0.0922352
0.0922697
0.0962443
0.0962325
0.096214
0.0961955
0.0961817
0.0961754
0.096178
0.0961894
0.096209
0.0962357
0.0962686
0.0963071
0.0963509
0.0963993
0.0964512
0.0965049
0.096558
0.0966069
0.096646
0.0966683
0.100709
0.100705
0.1007
0.100697
0.100699
0.100706
0.100721
0.100742
0.100769
0.100801
0.100837
0.100875
0.100917
0.10096
0.101004
0.101047
0.101088
0.101124
0.101151
0.101166
0.105215
0.105217
0.105221
0.10523
0.105243
0.105263
0.105288
0.105318
0.105352
0.105389
0.105427
0.105466
0.105505
0.105544
0.105582
0.105617
0.105649
0.105675
0.105695
0.105705
0.1097
0.109706
0.109717
0.109735
0.109759
0.109788
0.109822
0.10986
0.1099
0.109941
0.109982
0.110022
0.11006
0.110096
0.110128
0.110157
0.110182
0.110202
0.110216
0.110223
0.114094
0.114103
0.11412
0.114145
0.114177
0.114215
0.114257
0.114302
0.114348
0.114394
0.114437
0.114478
0.114515
0.114547
0.114576
0.1146
0.114619
0.114634
0.114645
0.11465
0.11832
0.118331
0.118352
0.118383
0.118423
0.118468
0.118518
0.118569
0.118621
0.11867
0.118716
0.118758
0.118794
0.118824
0.118849
0.118869
0.118884
0.118895
0.118903
0.118906
0.122292
0.122305
0.12233
0.122367
0.122412
0.122464
0.122521
0.122578
0.122635
0.122688
0.122736
0.122778
0.122814
0.122842
0.122865
0.122881
0.122893
0.1229
0.122905
0.122907
0.125922
0.125937
0.125965
0.126007
0.126058
0.126116
0.126178
0.126241
0.126302
0.126359
0.126409
0.126452
0.126487
0.126514
0.126533
0.126547
0.126555
0.12656
0.126563
0.126564
0.129121
0.129137
0.129169
0.129214
0.129271
0.129334
0.129401
0.129469
0.129534
0.129593
0.129645
0.129689
0.129723
0.129749
0.129766
0.129777
0.129783
0.129785
0.129786
0.129786
0.131804
0.131821
0.131856
0.131904
0.131964
0.132032
0.132104
0.132175
0.132243
0.132305
0.132359
0.132403
0.132437
0.132461
0.132477
0.132485
0.132489
0.132489
0.132489
0.132488
0.133893
0.133911
0.133948
0.133999
0.134062
0.134134
0.134208
0.134283
0.134353
0.134417
0.134472
0.134516
0.13455
0.134573
0.134587
0.134594
0.134596
0.134595
0.134593
0.134592
0.135325
0.135344
0.135382
0.135435
0.1355
0.135574
0.135651
0.135727
0.1358
0.135865
0.13592
0.135965
0.135998
0.13602
0.136034
0.136039
0.13604
0.136037
0.136035
0.136033
0.136053
0.136073
0.136111
0.136166
0.136232
0.136307
0.136385
0.136462
0.136536
0.136601
0.136657
0.136701
0.136735
0.136757
0.136769
0.136774
0.136774
0.136771
0.136768
0.136766
0.0793096
0.0792122
0.0790731
0.0789391
0.0788267
0.078741
0.0786809
0.0786437
0.0786285
0.0786321
0.0786524
0.0786882
0.0787428
0.07882
0.0789195
0.0790388
0.0791757
0.0793267
0.0794767
0.079581
0.0801222
0.0800165
0.0798741
0.0797438
0.079636
0.0795547
0.0794984
0.0794638
0.0794513
0.0794563
0.0794773
0.0795126
0.079566
0.079642
0.0797396
0.0798554
0.0799879
0.0801358
0.0802891
0.0804022
0.081825
0.0817206
0.081587
0.0814696
0.0813726
0.0812999
0.0812509
0.0812222
0.0812145
0.0812222
0.0812441
0.0812792
0.0813315
0.0814051
0.0814976
0.0816053
0.0817277
0.0818649
0.0820104
0.0821219
0.084414
0.0843373
0.0842341
0.084139
0.0840597
0.0840001
0.0839612
0.0839413
0.0839392
0.0839505
0.0839741
0.0840104
0.0840621
0.084131
0.0842146
0.0843103
0.084418
0.0845356
0.0846531
0.0847364
0.0876887
0.0876401
0.08757
0.0875013
0.0874433
0.0874003
0.0873739
0.0873635
0.0873676
0.0873834
0.0874099
0.0874475
0.0874975
0.0875601
0.0876337
0.0877162
0.0878062
0.0878999
0.0879865
0.088043
0.0914631
0.0914348
0.0913917
0.0913478
0.091311
0.0912852
0.0912721
0.0912717
0.0912828
0.0913037
0.0913334
0.0913719
0.0914194
0.0914756
0.0915392
0.0916085
0.0916811
0.0917526
0.0918142
0.0918517
0.0956032
0.0955884
0.0955654