# vtk DataFile Version 2.0
Pressure 3D1D coupled problem
ASCII
DATASET UNSTRUCTURED_GRID
POINTS 9261 float
0 0 0
0 0 0.1
0 0 0.2
0 0 0.3
0 0 0.4
0 0 0.5
0 0 0.6
0 0 0.7
0 0 0.8
0 0 0.9
0 0 1
0 0 1.1
0 0 1.2
0 0 1.3
0 0 1.4
0 0 1.5
0 0 1.6
0 0 1.7
0 0 1.8
0 0 1.9
0 0 2
0 0.1 0
0 0.1 0.1
0 0.1 0.2
0 0.1 0.3
0 0.1 0.4
0 0.1 0.5
0 0.1 0.6
0 0.1 0.7
0 0.1 0.8
0 0.1 0.9
0 0.1 1
0 0.1 1.1
0 0.1 1.2
0 0.1 1.3
0 0.1 1.4
0 0.1 1.5
0 0.1 1.6
0 0.1 1.7
0 0.1 1.8
0 0.1 1.9
0 0.1 2
0 0.2 0
0 0.2 0.1
0 0.2 0.2
0 0.2 0.3
0 0.2 0.4
0 0.2 0.5
0 0.2 0.6
0 0.2 0.7
0 0.2 0.8
0 0.2 0.9
0 0.2 1
0 0.2 1.1
0 0.2 1.2
0 0.2 1.3
0 0.2 1.4
0 0.2 1.5
0 0.2 1.6
0 0.2 1.7
0 0.2 1.8
0 0.2 1.9
0 0.2 2
0 0.3 0
0 0.3 0.1
0 0.3 0.2
0 0.3 0.3
0 0.3 0.4
0 0.3 0.5
0 0.3 0.6
0 0.3 0.7
0 0.3 0.8
0 0.3 0.9
0 0.3 1
0 0.3 1.1
0 0.3 1.2
0 0.3 1.3
0 0.3 1.4
0 0.3 1.5
0 0.3 1.6
0 0.3 1.7
0 0.3 1.8
0 0.3 1.9
0 0.3 2
0 0.4 0
0 0.4 0.1
0 0.4 0.2
0 0.4 0.3
0 0.4 0.4
0 0.4 0.5
0 0.4 0.6
0 0.4 0.7
0 0.4 0.8
0 0.4 0.9
0 0.4 1
0 0.4 1.1
0 0.4 1.2
0 0.4 1.3
0 0.4 1.4
0 0.4 1.5
0 0.4 1.6
0 0.4 1.7
0 0.4 1.8
0 0.4 1.9
0 0.4 2
0 0.5 0
0 0.5 0.1
0 0.5 0.2
0 0.5 0.3
0 0.5 0.4
0 0.5 0.5
0 0.5 0.6
0 0.5 0.7
0 0.5 0.8
0 0.5 0.9
0 0.5 1
0 0.5 1.1
0 0.5 1.2
0 0.5 1.3
0 0.5 1.4
0 0.5 1.5
0 0.5 1.6
0 0.5 1.7
0 0.5 1.8
0 0.5 1.9
0 0.5 2
0 0.6 0
0 0.6 0.1
0 0.6 0.2
0 0.6 0.3
0 0.6 0.4
0 0.6 0.5
0 0.6 0.6
0 0.6 0.7
0 0.6 0.8
0 0.6 0.9
0 0.6 1
0 0.6 1.1
0 0.6 1.2
0 0.6 1.3
0 0.6 1.4
0 0.6 1.5
0 0.6 1.6
0 0.6 1.7
0 0.6 1.8
0 0.6 1.9
0 0.6 2
0 0.7 0
0 0.7 0.1
0 0.7 0.2
0 0.7 0.3
0 0.7 0.4
0 0.7 0.5
0 0.7 0.6
0 0.7 0.7
0 0.7 0.8
0 0.7 0.9
0 0.7 1
0 0.7 1.1
0 0.7 1.2
0 0.7 1.3
0 0.7 1.4
0 0.7 1.5
0 0.7 1.6
0 0.7 1.7
0 0.7 1.8
0 0.7 1.9
0 0.7 2
0 0.8 0
0 0.8 0.1
0 0.8 0.2
0 0.8 0.3
0 0.8 0.4
0 0.8 0.5
0 0.8 0.6
0 0.8 0.7
0 0.8 0.8
0 0.8 0.9
0 0.8 1
0 0.8 1.1
0 0.8 1.2
0 0.8 1.3
0 0.8 1.4
0 0.8 1.5
0 0.8 1.6
0 0.8 1.7
0 0.8 1.8
0 0.8 1.9
0 0.8 2
0 0.9 0
0 0.9 0.1
0 0.9 0.2
0 0.9 0.3
0 0.9 0.4
0 0.9 0.5
0 0.9 0.6
0 0.9 0.7
0 0.9 0.8
0 0.9 0.9
0 0.9 1
0 0.9 1.1
0 0.9 1.2
0 0.9 1.3
0 0.9 1.4
0 0.9 1.5
0 0.9 1.6
0 0.9 1.7
0 0.9 1.8
0 0.9 1.9
0 0.9 2
0 1 0
0 1 0.1
0 1 0.2
0 1 0.3
0 1 0.4
0 1 0.5
0 1 0.6
0 1 0.7
0 1 0.8
0 1 0.9
0 1 1
0 1 1.1
0 1 1.2
0 1 1.3
0 1 1.4
0 1 1.5
0 1 1.6
0 1 1.7
0 1 1.8
0 1 1.9
0 1 2
0 1.1 0
0 1.1 0.1
0 1.1 0.2
0 1.1 0.3
0 1.1 0.4
0 1.1 0.5
0 1.1 0.6
0 1.1 0.7
0 1.1 0.8
0 1.1 0.9
0 1.1 1
0 1.1 1.1
0 1.1 1.2
0 1.1 1.3
0 1.1 1.4
0 1.1 1.5
0 1.1 1.6
0 1.1 1.7
0 1.1 1.8
0 1.1 1.9
0 1.1 2
0 1.2 0
0 1.2 0.1
0 1.2 0.2
0 1.2 0.3
0 1.2 0.4
0 1.2 0.5
0 1.2 0.6
0 1.2 0.7
0 1.2 0.8
0 1.2 0.9
0 1.2 1
0 1.2 1.1
0 1.2 1.2
0 1.2 1.3
0 1.2 1.4
0 1.2 1.5
0 1.2 1.6
0 1.2 1.7
0 1.2 1.8
0 1.2 1.9
0 1.2 2
0 1.3 0
0 1.3 0.1
0 1.3 0.2
0 1.3 0.3
0 1.3 0.4
0 1.3 0.5
0 1.3 0.6
0 1.3 0.7
0 1.3 0.8
0 1.3 0.9
0 1.3 1
0 1.3 1.1
0 1.3 1.2
0 1.3 1.3
0 1.3 1.4
0 1.3 1.5
0 1.3 1.6
0 1.3 1.7
0 1.3 1.8
0 1.3 1.9
0 1.3 2
0 1.4 0
0 1.4 0.1
0 1.4 0.2
0 1.4 0.3
0 1.4 0.4
0 1.4 0.5
0 1.4 0.6
0 1.4 0.7
0 1.4 0.8
0 1.4 0.9
0 1.4 1
0 1.4 1.1
0 1.4 1.2
0 1.4 1.3
0 1.4 1.4
0 1.4 1.5
0 1.4 1.6
0 1.4 1.7
0 1.4 1.8
0 1.4 1.9
0 1.4 2
0 1.5 0
0 1.5 0.1
0 1.5 0.2
0 1.5 0.3
0 1.5 0.4
0 1.5 0.5
0 1.5 0.6
0 1.5 0.7
0 1.5 0.8
0 1.5 0.9
0 1.5 1
0 1.5 1.1
0 1.5 1.2
0 1.5 1.3
0 1.5 1.4
0 1.5 1.5
0 1.5 1.6
0 1.5 1.7
0 1.5 1.8
0 1.5 1.9
0 1.5 2
0 1.6 0
0 1.6 0.1
0 1.6 0.2
0 1.6 0.3
0 1.6 0.4
0 1.6 0.5
0 1.6 0.6
0 1.6 0.7
0 1.6 0.8
0 1.6 0.9
0 1.6 1
0 1.6 1.1
0 1.6 1.2
0 1.6 1.3
0 1.6 1.4
0 1.6 1.5
0 1.6 1.6
0 1.6 1.7
0 1.6 1.8
0 1.6 1.9
0 1.6 2
0 1.7 0
0 1.7 0.1
0 1.7 0.2
0 1.7 0.3
0 1.7 0.4
0 1.7 0.5
0 1.7 0.6
0 1.7 0.7
0 1.7 0.8
0 1.7 0.9
0 1.7 1
0 1.7 1.1
0 1.7 1.2
0 1.7 1.3
0 1.7 1.4
0 1.7 1.5
0 1.7 1.6
0 1.7 1.7
0 1.7 1.8
0 1.7 1.9
0 1.7 2
0 1.8 0
0 1.8 0.1
0 1.8 0.2
0 1.8 0.3
0 1.8 0.4
0 1.8 0.5
0 1.8 0.6
0 1.8 0.7
0 1.8 0.8
0 1.8 0.9
0 1.8 1
0 1.8 1.1
0 1.8 1.2
0 1.8 1.3
0 1.8 1.4
0 1.8 1.5
0 1.8 1.6
0 1.8 1.7
0 1.8 1.8
0 1.8 1.9
0 1.8 2
0 1.9 0
0 1.9 0.1
0 1.9 0.2
0 1.9 0.3
0 1.9 0.4
0 1.9 0.5
0 1.9 0.6
0 1.9 0.7
0 1.9 0.8
0 1.9 0.9
0 1.9 1
0 1.9 1.1
0 1.9 1.2
0 1.9 1.3
0 1.9 1.4
0 1.9 1.5
0 1.9 1.6
0 1.9 1.7
0 1.9 1.8
0 1.9 1.9
0 1.9 2
0 2 0
0 2 0.1
0 2 0.2
0 2 0.3
0 2 0.4
0 2 0.5
0 2 0.6
0 2 0.7
0 2 0.8
0 2 0.9
0 2 1
0 2 1.1
0 2 1.2
0 2 1.3
0 2 1.4
0 2 1.5
0 2 1.6
0 2 1.7
0 2 1.8
0 2 1.9
0 2 2
0.1 0 0
0.1 0 0.1
0.1 0 0.2
0.1 0 0.3
0.1 0 0.4
0.1 0 0.5
0.1 0 0.6
0.1 0 0.7
0.1 0 0.8
0.1 0 0.9
0.1 0 1
0.1 0 1.1
0.1 0 1.2
0.1 0 1.3
0.1 0 1.4
0.1 0 1.5
0.1 0 1.6
0.1 0 1.7
0.1 0 1.8
0.1 0 1.9
0.1 0 2
0.1 0.1 0
0.1 0.1 0.1
0.1 0.1 0.2
0.1 0.1 0.3
0.1 0.1 0.4
0.1 0.1 0.5
0.1 0.1 0.6
0.1 0.1 0.7
0.1 0.1 0.8
0.1 0.1 0.9
0.1 0.1 1
0.1 0.1 1.1
0.1 0.1 1.2
0.1 0.1 1.3
0.1 0.1 1.4
0.1 0.1 1.5
0.1 0.1 1.6
0.1 0.1 1.7
0.1 0.1 1.8
0.1 0.1 1.9
0.1 0.1 2
0.1 0.2 0
0.1 0.2 0.1
0.1 0.2 0.2
0.1 0.2 0.3
0.1 0.2 0.4
0.1 0.2 0.5
0.1 0.2 0.6
0.1 0.2 0.7
0.1 0.2 0.8
0.1 0.2 0.9
0.1 0.2 1
0.1 0.2 1.1
0.1 0.2 1.2
0.1 0.2 1.3
0.1 0.2 1.4
0.1 0.2 1.5
0.1 0.2 1.6
0.1 0.2 1.7
0.1 0.2 1.8
0.1 0.2 1.9
0.1 0.2 2
0.1 0.3 0
0.1 0.3 0.1
0.1 0.3 0.2
0.1 0.3 0.3
0.1 0.3 0.4
0.1 0.3 0.5
0.1 0.3 0.6
0.1 0.3 0.7
0.1 0.3 0.8
0.1 0.3 0.9
0.1 0.3 1
0.1 0.3 1.1
0.1 0.3 1.2
0.1 0.3 1.3
0.1 0.3 1.4
0.1 0.3 1.5
0.1 0.3 1.6
0.1 0.3 1.7
0.1 0.3 1.8
0.1 0.3 1.9
0.1 0.3 2
0.1 0.4 0
0.1 0.4 0.1
0.1 0.4 0.2
0.1 0.4 0.3
0.1 0.4 0.4
0.1 0.4 0.5
0.1 0.4 0.6
0.1 0.4 0.7
0.1 0.4 0.8
0.1 0.4 0.9
0.1 0.4 1
0.1 0.4 1.1
0.1 0.4 1.2
0.1 0.4 1.3
0.1 0.4 1.4
0.1 0.4 1.5
0.1 0.4 1.6
0.1 0.4 1.7
0.1 0.4 1.8
0.1 0.4 1.9
0.1 0.4 2
0.1 0.5 0
0.1 0.5 0.1
0.1 0.5 0.2
0.1 0.5 0.3
0.1 0.5 0.4
0.1 0.5 0.5
0.1 0.5 0.6
0.1 0.5 0.7
0.1 0.5 0.8
0.1 0.5 0.9
0.1 0.5 1
0.1 0.5 1.1
0.1 0.5 1.2
0.1 0.5 1.3
0.1 0.5 1.4
0.1 0.5 1.5
0.1 0.5 1.6
0.1 0.5 1.7
0.1 0.5 1.8
0.1 0.5 1.9
0.1 0.5 2
0.1 0.6 0
0.1 0.6 0.1
0.1 0.6 0.2
0.1 0.6 0.3
0.1 0.6 0.4
0.1 0.6 0.5
0.1 0.6 0.6
0.1 0.6 0.7
0.1 0.6 0.8
0.1 0.6 0.9
0.1 0.6 1
0.1 0.6 1.1
0.1 0.6 1.2
0.1 0.6 1.3
0.1 0.6 1.4
0.1 0.6 1.5
0.1 0.6 1.6
0.1 0.6 1.7
0.1 0.6 1.8
0.1 0.6 1.9
0.1 0.6 2
0.1 0.7 0
0.1 0.7 0.1
0.1 0.7 0.2
0.1 0.7 0.3
0.1 0.7 0.4
0.1 0.7 0.5
0.1 0.7 0.6
0.1 0.7 0.7
0.1 0.7 0.8
0.1 0.7 0.9
0.1 0.7 1
0.1 0.7 1.1
0.1 0.7 1.2
0.1 0.7 1.3
0.1 0.7 1.4
0.1 0.7 1.5
0.1 0.7 1.6
0.1 0.7 1.7
0.1 0.7 1.8
0.1 0.7 1.9
0.1 0.7 2
0.1 0.8 0
0.1 0.8 0.1
0.1 0.8 0.2
0.1 0.8 0.3
0.1 0.8 0.4
0.1 0.8 0.5
0.1 0.8 0.6
0.1 0.8 0.7
0.1 0.8 0.8
0.1 0.8 0.9
0.1 0.8 1
0.1 0.8 1.1
0.1 0.8 1.2
0.1 0.8 1.3
0.1 0.8 1.4
0.1 0.8 1.5
0.1 0.8 1.6
0.1 0.8 1.7
0.1 0.8 1.8
0.1 0.8 1.9
0.1 0.8 2
0.1 0.9 0
0.1 0.9 0.1
0.1 0.9 0.2
0.1 0.9 0.3
0.1 0.9 0.4
0.1 0.9 0.5
0.1 0.9 0.6
0.1 0.9 0.7
0.1 0.9 0.8
0.1 0.9 0.9
0.1 0.9 1
0.1 0.9 1.1
0.1 0.9 1.2
0.1 0.9 1.3
0.1 0.9 1.4
0.1 0.9 1.5
0.1 0.9 1.6
0.1 0.9 1.7
0.1 0.9 1.8
0.1 0.9 1.9
0.1 0.9 2
0.1 1 0
0.1 1 0.1
0.1 1 0.2
0.1 1 0.3
0.1 1 0.4
0.1 1 0.5
0.1 1 0.6
0.1 1 0.7
0.1 1 0.8
0.1 1 0.9
0.1 1 1
0.1 1 1.1
0.1 1 1.2
0.1 1 1.3
0.1 1 1.4
0.1 1 1.5
0.1 1 1.6
0.1 1 1.7
0.1 1 1.8
0.1 1 1.9
0.1 1 2
0.1 1.1 0
0.1 1.1 0.1
0.1 1.1 0.2
0.1 1.1 0.3
0.1 1.1 0.4
0.1 1.1 0.5
0.1 1.1 0.6
0.1 1.1 0.7
0.1 1.1 0.8
0.1 1.1 0.9
0.1 1.1 1
0.1 1.1 1.1
0.1 1.1 1.2
0.1 1.1 1.3
0.1 1.1 1.4
0.1 1.1 1.5
0.1 1.1 1.6
0.1 1.1 1.7
0.1 1.1 1.8
0.1 1.1 1.9
0.1 1.1 2
0.1 1.2 0
0.1 1.2 0.1
0.1 1.2 0.2
0.1 1.2 0.3
0.1 1.2 0.4
0.1 1.2 0.5
0.1 1.2 0.6
0.1 1.2 0.7
0.1 1.2 0.8
0.1 1.2 0.9
0.1 1.2 1
0.1 1.2 1.1
0.1 1.2 1.2
0.1 1.2 1.3
0.1 1.2 1.4
0.1 1.2 1.5
0.1 1.2 1.6
0.1 1.2 1.7
0.1 1.2 1.8
0.1 1.2 1.9
0.1 1.2 2
0.1 1.3 0
0.1 1.3 0.1
0.1 1.3 0.2
0.1 1.3 0.3
0.1 1.3 0.4
0.1 1.3 0.5
0.1 1.3 0.6
0.1 1.3 0.7
0.1 1.3 0.8
0.1 1.3 0.9
0.1 1.3 1
0.1 1.3 1.1
0.1 1.3 1.2
0.1 1.3 1.3
0.1 1.3 1.4
0.1 1.3 1.5
0.1 1.3 1.6
0.1 1.3 1.7
0.1 1.3 1.8
0.1 1.3 1.9
0.1 1.3 2
0.1 1.4 0
0.1 1.4 0.1
0.1 1.4 0.2
0.1 1.4 0.3
0.1 1.4 0.4
0.1 1.4 0.5
0.1 1.4 0.6
0.1 1.4 0.7
0.1 1.4 0.8
0.1 1.4 0.9
0.1 1.4 1
0.1 1.4 1.1
0.1 1.4 1.2
0.1 1.4 1.3
0.1 1.4 1.4
0.1 1.4 1.5
0.1 1.4 1.6
0.1 1.4 1.7
0.1 1.4 1.8
0.1 1.4 1.9
0.1 1.4 2
0.1 1.5 0
0.1 1.5 0.1
0.1 1.5 0.2
0.1 1.5 0.3
0.1 1.5 0.4
0.1 1.5 0.5
0.1 1.5 0.6
0.1 1.5 0.7
0.1 1.5 0.8
0.1 1.5 0.9
0.1 1.5 1
0.1 1.5 1.1
0.1 1.5 1.2
0.1 1.5 1.3
0.1 1.5 1.4
0.1 1.5 1.5
0.1 1.5 1.6
0.1 1.5 1.7
0.1 1.5 1.8
0.1 1.5 1.9
0.1 1.5 2
0.1 1.6 0
0.1 1.6 0.1
0.1 1.6 0.2
0.1 1.6 0.3
0.1 1.6 0.4
0.1 1.6 0.5
0.1 1.6 0.6
0.1 1.6 0.7
0.1 1.6 0.8
0.1 1.6 0.9
0.1 1.6 1
0.1 1.6 1.1
0.1 1.6 1.2
0.1 1.6 1.3
0.1 1.6 1.4
0.1 1.6 1.5
0.1 1.6 1.6
0.1 1.6 1.7
0.1 1.6 1.8
0.1 1.6 1.9
0.1 1.6 2
0.1 1.7 0
0.1 1.7 0.1
0.1 1.7 0.2
0.1 1.7 0.3
0.1 1.7 0.4
0.1 1.7 0.5
0.1 1.7 0.6
0.1 1.7 0.7
0.1 1.7 0.8
0.1 1.7 0.9
0.1 1.7 1
0.1 1.7 1.1
0.1 1.7 1.2
0.1 1.7 1.3
0.1 1.7 1.4
0.1 1.7 1.5
0.1 1.7 1.6
0.1 1.7 1.7
0.1 1.7 1.8
0.1 1.7 1.9
0.1 1.7 2
0.1 1.8 0
0.1 1.8 0.1
0.1 1.8 0.2
0.1 1.8 0.3
0.1 1.8 0.4
0.1 1.8 0.5
0.1 1.8 0.6
0.1 1.8 0.7
0.1 1.8 0.8
0.1 1.8 0.9
0.1 1.8 1
0.1 1.8 1.1
0.1 1.8 1.2
0.1 1.8 1.3
0.1 1.8 1.4
0.1 1.8 1.5
0.1 1.8 1.6
0.1 1.8 1.7
0.1 1.8 1.8
0.1 1.8 1.9
0.1 1.8 2
0.1 1.9 0
0.1 1.9 0.1
0.1 1.9 0.2
0.1 1.9 0.3
0.1 1.9 0.4
0.1 1.9 0.5
0.1 1.9 0.6
0.1 1.9 0.7
0.1 1.9 0.8
0.1 1.9 0.9
0.1 1.9 1
0.1 1.9 1.1
0.1 1.9 1.2
0.1 1.9 1.3
0.1 1.9 1.4
0.1 1.9 1.5
0.1 1.9 1.6
0.1 1.9 1.7
0.1 1.9 1.8
0.1 1.9 1.9
0.1 1.9 2
0.1 2 0
0.1 2 0.1
0.1 2 0.2
0.1 2 0.3
0.1 2 0.4
0.1 2 0.5
0.1 2 0.6
0.1 2 0.7
0.1 2 0.8
0.1 2 0.9
0.1 2 1
0.1 2 1.1
0.1 2 1.2
0.1 2 1.3
0.1 2 1.4
0.1 2 1.5
0.1 2 1.6
0.1 2 1.7
0.1 2 1.8
0.1 2 1.9
0.1 2 2
0.2 0 0
0.2 0 0.1
0.2 0 0.2
0.2 0 0.3
0.2 0 0.4
0.2 0 0.5
0.2 0 0.6
0.2 0 0.7
0.2 0 0.8
0.2 0 0.9
0.2 0 1
0.2 0 1.1
0.2 0 1.2
0.2 0 1.3
0.2 0 1.4
0.2 0 1.5
0.2 0 1.6
0.2 0 1.7
0.2 0 1.8
0.2 0 1.9
0.2 0 2
0.2 0.1 0
0.2 0.1 0.1
0.2 0.1 0.2
0.2 0.1 0.3
0.2 0.1 0.4
0.2 0.1 0.5
0.2 0.1 0.6
0.2 0.1 0.7
0.2 0.1 0.8
0.2 0.1 0.9
0.2 0.1 1
0.2 0.1 1.1
0.2 0.1 1.2
0.2 0.1 1.3
0.2 0.1 1.4
0.2 0.1 1.5
0.2 0.1 1.6
0.2 0.1 1.7
0.2 0.1 1.8
0.2 0.1 1.9
0.2 0.1 2
0.2 0.2 0
0.2 0.2 0.1
0.2 0.2 0.2
0.2 0.2 0.3
0.2 0.2 0.4
0.2 0.2 0.5
0.2 0.2 0.6
0.2 0.2 0.7
0.2 0.2 0.8
0.2 0.2 0.9
0.2 0.2 1
0.2 0.2 1.1
0.2 0.2 1.2
0.2 0.2 1.3
0.2 0.2 1.4
0.2 0.2 1.5
0.2 0.2 1.6
0.2 0.2 1.7
0.2 0.2 1.8
0.2 0.2 1.9
[...]
CELL_DATA 8000
SCALARS Phi_sigma_(3D) float 1
LOOKUP_TABLE default
0.173267
0.172118
0.170855
0.169934
0.16922
0.1687
0.168356
0.168133
0.168044
0.167998
0.167997
0.16805
0.168214
0.16854
0.168986
0.169524
0.170217
0.171155
0.172397
0.173523
0.173975
0.172295
0.170798
0.169943
0.169234
0.168719
0.168401
0.168174
0.168133
0.168084
0.168077
0.168098
0.168241
0.168589
0.16905
0.169553
0.170204
0.171115
0.172576
0.174212
0.177879
0.176243
0.1748
0.174011
0.173372
0.172938
0.172661
0.172429
0.172383
0.172349
0.172384
0.172407
0.172519
0.172832
0.173273
0.173773
0.174373
0.175188
0.17658
0.178245
0.18533
0.184425
0.183435
0.182748
0.182244
0.181918
0.181682
0.181484
0.1814
0.181391
0.181464
0.181528
0.18164
0.181884
0.182257
0.182734
0.183269
0.183936
0.184896
0.185892
0.193798
0.193342
0.192761
0.192273
0.191896
0.19163
0.19144
0.191303
0.191242
0.191243
0.191302
0.191388
0.191522
0.191739
0.192043
0.192421
0.192855
0.193363
0.193955
0.194452
0.202064
0.201833
0.201503
0.201187
0.200924
0.200726
0.200585
0.200496
0.20046
0.200473
0.200531
0.200624
0.20076
0.200951
0.201197
0.201492
0.201823
0.202184
0.202543
0.202798
0.209816
0.209696
0.209509
0.209313
0.209141
0.209007
0.208914
0.208861
0.208848
0.208874
0.208936
0.20903
0.209158
0.209323
0.209524
0.209753
0.21
0.21025
0.210474
0.210616
0.217016
0.216952
0.216848
0.216732
0.216627
0.216545
0.216492
0.216469
0.216477
0.216514
0.21658
0.216672
0.21679
0.216933
0.217097
0.217276
0.217461
0.217638
0.217783
0.217869
0.223697
0.223663
0.223607
0.223543
0.223486
0.223444
0.223423
0.223425
0.22345
0.223498
0.223567
0.223657
0.223765
0.223889
0.224025
0.224168
0.224309
0.224437
0.224537
0.224593
0.229892
0.229876
0.229849
0.22982
0.229797
0.229785
0.229788
0.22981
0.229849
0.229905
0.229978
0.230065
0.230165
0.230275
0.23039
0.230506
0.230617
0.230713
0.230786
0.230825
0.235624
0.235619
0.235611
0.235604
0.235604
0.235615
0.235637
0.235674
0.235724
0.235788
0.235863
0.235949
0.236042
0.236141
0.236241
0.236339
0.236428
0.236504
0.23656
0.236589
0.240897
0.240898
0.240902
0.240911
0.240928
0.240954
0.240991
0.241039
0.241099
0.241168
0.241246
0.24133
0.241419
0.24151
0.2416
0.241684
0.24176
0.241822
0.241867
0.24189
0.2457
0.245705
0.245717
0.245737
0.245765
0.245803
0.245851
0.245909
0.245975
0.246049
0.246129
0.246213
0.246299
0.246384
0.246465
0.246541
0.246607
0.24666
0.246698
0.246718
0.250011
0.250019
0.250037
0.250064
0.250101
0.250147
0.250203
0.250268
0.25034
0.250417
0.250499
0.250583
0.250666
0.250747
0.250824
0.250893
0.250953
0.251
0.251033
0.25105
0.2538
0.253811
0.253832
0.253865
0.253908
0.253961
0.254023
0.254093
0.254169
0.254249
0.254332
0.254416
0.254498
0.254576
0.254649
0.254714
0.254769
0.254813
0.254843
0.254858
0.257034
0.257046
0.25707
0.257106
0.257154
0.257211
0.257278
0.257352
0.257431
0.257514
0.257598
0.257682
0.257763
0.25784
0.25791
0.257972
0.258024
0.258064
0.258092
0.258107
0.259676
0.259689
0.259716
0.259754
0.259805
0.259866
0.259936
0.260013
0.260094
0.260179
0.260264
0.260348
0.260428
0.260504
0.260572
0.260632
0.260682
0.260721
0.260747
0.260761
0.261694
0.261708
0.261736
0.261776
0.261829
0.261892
0.261964
0.262043
0.262127
0.262212
0.262298
0.262382
0.262462
0.262536
0.262603
0.262662
0.26271
0.262748
0.262774
0.262787
0.263059
0.263073
0.263102
0.263143
0.263197
0.263262
0.263336
0.263416
0.2635
0.263587
0.263673
0.263757
0.263837
0.26391
0.263976
0.264034
0.264082
0.264119
0.264144
0.264157
0.263748
0.263763
0.263791
0.263834
0.263888
0.263954
0.264028
0.264109
0.264194
0.264281
0.264367
0.264451
0.26453
0.264604
0.26467
0.264727
0.264774
0.26481
0.264835
0.264848
0.174098
0.172443
0.170959
0.170107
0.169402
0.168895
0.168578
0.168348
0.168302
0.168255
0.168254
0.168277
0.168417
0.16876
0.169221
0.169729
0.170379
0.171283
0.172728
0.17435
0.172865
0.16875
0.166503
0.166144
0.165316
0.164725
0.164498
0.164174
0.164379
0.164261
0.164223
0.164117
0.164184
0.164679
0.16525
0.165614
0.16616
0.166854
0.168976
0.172903
0.176403
0.172257
0.169946
0.169623
0.168865
0.168454
0.168284
0.167875
0.168029
0.16793
0.168048
0.167931
0.167901
0.168317
0.168879
0.169358
0.169856
0.170358
0.172417
0.17672
0.185686
0.184244
0.182914
0.182249
0.181752
0.181559
0.181369
0.181065
0.180963
0.180958
0.181173
0.181195
0.181203
0.181405
0.181805
0.182401
0.1829
0.183418
0.184567
0.186417
0.194938
0.194376
0.193733
0.193255
0.192892
0.19265
0.192473
0.192332
0.192275
0.192281
0.192356
0.192434
0.192552
0.192763
0.193066
0.193446
0.193862
0.194346
0.194986
0.195622
0.203302
0.203054
0.202719
0.202412
0.20216
0.201973
0.201841
0.201757
0.201726
0.201743
0.201802
0.201894
0.202027
0.202215
0.202456
0.202743
0.203063
0.203413
0.203777
0.204051
0.210984
0.210863
0.210681
0.210493
0.21033
0.210203
0.210116
0.210068
0.21006
0.210089
0.210151
0.210245
0.210372
0.210535
0.210731
0.210953
0.211193
0.211436
0.211656
0.211798
0.218097
0.218034
0.217934
0.217825
0.217726
0.21765
0.217601
0.217583
0.217594
0.217634
0.217701
0.217793
0.21791
0.218051
0.218212
0.218387
0.218567
0.218739
0.218881
0.218965
0.224711
0.224679
0.224626
0.224567
0.224514
0.224477
0.22446
0.224465
0.224492
0.224542
0.224613
0.224703
0.224811
0.224934
0.225068
0.225208
0.225346
0.225471
0.225568
0.225623
0.230867
0.230852
0.230828
0.230802
0.230782
0.230773
0.23078
0.230804
0.230846
0.230904
0.230978
0.231066
0.231166
0.231275
0.23139
0.231504
0.231613
0.231707
0.231778
0.231817
0.236583
0.236578
0.236572
0.236568
0.236571
0.236584
0.23661
0.236649
0.236702
0.236767
0.236844
0.23693
0.237024
0.237123
0.237223
0.237319
0.237408
0.237483
0.237537
0.237566
0.241858
0.24186
0.241865
0.241877
0.241896
0.241924
0.241964
0.242015
0.242077
0.242148
0.242227
0.242313
0.242402
0.242493
0.242583
0.242667
0.242742
0.242804
0.242848
0.242871
0.246677
0.246683
0.246696
0.246718
0.246748
0.246789
0.246839
0.246899
0.246968
0.247044
0.247125
0.247211
0.247297
0.247383
0.247465
0.24754
0.247606
0.247659
0.247696
0.247716
0.251012
0.251021
0.25104
0.251069
0.251108
0.251157
0.251216
0.251283
0.251357
0.251437
0.251521
0.251606
0.25169
0.251772
0.251849
0.251918
0.251978
0.252025
0.252058
0.252075
0.254831
0.254842
0.254865
0.254899
0.254945
0.255
0.255065
0.255138
0.255216
0.255299
0.255384
0.255469
0.255552
0.255632
0.255705
0.25577
0.255825
0.255868
0.255898
0.255914
0.258096
0.258108
0.258134
0.258172
0.258222
0.258282
0.258352
0.258428
0.25851
0.258596
0.258682
0.258767
0.25885
0.258927
0.258997
0.25906
0.259112
0.259152
0.25918
0.259195
0.260767
0.260781
0.260808
0.260849
0.260902
0.260966
0.261039
0.261119
0.261203
0.26129
0.261378
0.261463
0.261545
0.261621
0.26169
0.26175
0.2618
0.261839
0.261865
0.261879
0.262809
0.262824
0.262853
0.262895
0.262951
0.263017
0.263092
0.263174
0.263261
0.263349
0.263437
0.263523
0.263604
0.263679
0.263747
0.263805
0.263854
0.263891
0.263917
0.26393
0.264192
0.264206
0.264236
0.26428
0.264337
0.264405
0.264481
0.264565
0.264652
0.264741
0.26483
0.264916
0.264997
0.265071
0.265138
0.265196
0.265243
0.26528
0.265305
0.265318
0.26489
0.264905
0.264935
0.26498
0.265037
0.265106
0.265183
0.265267
0.265355
0.265445
0.265533
0.265619
0.2657
0.265774
0.26584
0.265898
0.265945
0.265981
0.266006
0.266019
0.178224
0.176699
0.175297
0.174501
0.173877
0.173472
0.1732
0.172955
0.172889
0.172861
0.172921
0.17295
0.173051
0.173344
0.173783
0.174308
0.174909
0.175699
0.177039
0.178648
0.176745
0.173019
0.170738
0.17029
0.169575
0.169302
0.169141
0.168666
0.168718
0.168644
0.168896
0.168794
0.168701
0.169029
0.16958
0.170209
0.170723
0.171156
0.173094
0.177294
0.180493
0.17665
0.174494
0.174196
0.173509
0.17313
0.172976
0.172609
0.17276
0.172677
0.172784
0.17268
0.172663
0.173059
0.173586
0.174025
0.174479
0.174952
0.176889
0.180872
0.189433
0.187702
0.186599
0.186199
0.185691
0.185218
0.185009
0.184918
0.185022
0.184985
0.184876
0.184896
0.185078
0.185447
0.185821
0.186036
0.186468
0.18714
0.188326
0.189742
0.198036
0.197455
0.19688
0.196482
0.196142
0.195874
0.195707
0.195616
0.195606
0.195609
0.195632
0.195706
0.195854
0.196089
0.19637
0.196668
0.197042
0.19752
0.198127
0.198674
0.205975
0.205738
0.205436
0.205165
0.204937
0.20476
0.204642
0.204576
0.204562
0.204582
0.204634
0.204725
0.204862
0.205048
0.205276
0.205534
0.205828
0.206156
0.206494
0.20674
0.213346
0.213235
0.213071
0.212905
0.212758
0.212645
0.21257
0.212533
0.212534
0.212567
0.21263
0.212723
0.21285
0.213008
0.213195
0.213403
0.213626
0.213853
0.214057
0.214187
0.220241
0.220186
0.220097
0.22
0.219914
0.219849
0.21981
0.219799
0.219817
0.219861
0.21993
0.220023
0.220139
0.220276
0.220431
0.220597
0.220767
0.220928
0.22106
0.221138
0.226717
0.226689
0.226643
0.226593
0.226549
0.22652
0.22651
0.226522
0.226555
0.226609
0.226682
0.226773
0.22688
0.227001
0.227131
0.227266
0.227397
0.227516
0.227607
0.227659
0.232797
0.232785
0.232766
0.232746
0.232732
0.232731
0.232744
0.232774
0.23282
0.232882
0.232959
0.233048
0.233148
0.233256
0.233368
0.23348
0.233584
0.233675
0.233742
0.233779
0.238486
0.238484
0.238481
0.238482
0.23849
0.238509
0.23854
0.238584
0.238641
0.238711
0.23879
0.238879
0.238973
0.239072
0.23917
0.239265
0.239351
0.239424
0.239476
0.239504
0.243771
0.243774
0.243783
0.243798
0.243822
0.243856
0.243901
0.243957
0.244023
0.244098
0.24418
0.244268
0.244359
0.24445
0.244539
0.244622
0.244696
0.244756
0.244799
0.244822
0.248625
0.248633
0.248649
0.248674
0.24871
0.248755
0.248811
0.248876
0.248949
0.249029
0.249113
0.249201
0.249289
0.249376
0.249458
0.249533
0.249598
0.24965
0.249687
0.249706
0.253014
0.253025
0.253046
0.253079
0.253123
0.253177
0.253241
0.253313
0.253392
0.253476
0.253563
0.25365
0.253737
0.25382
0.253897
0.253966
0.254026
0.254072
0.254105
0.254122
0.256896
0.256908
0.256934
0.256972
0.257022
0.257083
0.257153
0.257231
0.257314
0.257402
0.257491
0.257579
0.257664
0.257745
0.257818
0.257884
0.257939
0.257982
0.258011
0.258027
0.260225
0.260239
0.260267
0.26031
0.260364
0.26043
0.260505
0.260588
0.260675
0.260765
0.260855
0.260944
0.261028
0.261107
0.261179
0.261241
0.261293
0.261333
0.261361
0.261375
0.262957
0.262972
0.263003
0.263048
0.263106
0.263176
0.263254
0.26334
0.26343
0.263522
0.263614
0.263703
0.263787
0.263864
0.263934
0.263994
0.264044
0.264083
0.264109
0.264122
0.26505
0.265066
0.265098
0.265145
0.265206
0.265278
0.26536
0.265448
0.26554
0.265633
0.265726
0.265815
0.265898
0.265975
0.266044
0.266102
0.266151
0.266188
0.266214
0.266227
0.266469
0.266485
0.266518
0.266567
0.266629
0.266703
0.266786
0.266876
0.266969
0.267063
0.267156
0.267245
0.267329
0.267405
0.267473
0.267531
0.267578
0.267615
0.267639
0.267652
0.267186
0.267203
0.267236
0.267285
0.267348
0.267423
0.267507
0.267598
0.267691
0.267786
0.267879
0.267969
0.268052
0.268128
0.268195
0.268252
0.268299
0.268336
0.26836
0.268373
0.185799
0.184956
0.184034
0.183374
0.182874
0.182527
0.182287
0.18211
0.18204
0.182028
0.182075
0.182141
0.182273
0.182528
0.182893
0.183338
0.183866
0.184538
0.185452
0.186333
0.186311
0.184976
0.183813
0.1832
0.182701
0.182383
0.18217
0.181964
0.181922
0.181909
0.181982
0.182019
0.182112
0.182374
0.182759
0.183209
0.183702
0.184326
0.18544
0.186866
0.189248
0.187512
0.186282
0.185825
0.185335
0.185019
0.18484
0.184636
0.184659
0.184635
0.184698
0.184709
0.184792
0.185081
0.185465
0.185854
0.186292
0.186828
0.187995
0.189789
0.195788
0.19496
0.194221
0.193782
0.193402
0.193108
0.192932
0.192829
0.192829
0.192827
0.192844
0.192904
0.193048
0.193301
0.193605
0.193916
0.19431
0.194836
0.195599
0.196386
0.202906
0.202537
0.202117
0.201784
0.201508
0.201295
0.201157
0.201083
0.20107
0.201085
0.201127
0.201211
0.201353
0.201559
0.201808
0.202086
0.202416
0.202811
0.203264
0.20363
0.209971
0.209798
0.209562
0.209341
0.209153
0.209008
0.208912
0.208863
0.208858
0.208886
0.208944
0.209037
0.20917
0.209344
0.209551
0.209784
0.210045
0.210325
0.210599
0.210787
0.216808
0.216721
0.216589
0.216453
0.216334
0.216242
0.216184
0.216161
0.216171
0.21621
0.216277
0.216372
0.216495
0.216645
0.216819
0.217009
0.21721
0.217409
0.217583
0.21769
0.223373
0.223328
0.223256
0.223179
0.223111
0.223061
0.223036
0.223036
0.223062
0.223112
0.223184
0.223278
0.223392
0.223524
0.22367
0.223825
0.22398
0.224125
0.224242
0.22431
0.229654
0.229632
0.229596
0.229559
0.229528
0.229511
0.229512
0.229532
0.229573
0.229632
0.229709
0.229801
0.229907
0.230025
0.23015
0.230277
0.2304
0.230508
0.230592
0.230638
0.235637
0.235629
0.235616
0.235605
0.235601
0.235609
0.235632
0.235669
0.235722
0.23579
0.23587
0.235961
0.236062
0.236168
0.236277
0.236384
0.236483
0.236568
0.236631
0.236665
0.241301
0.241301
0.241303
0.241311
0.241327
0.241354
0.241393
0.241445
0.241509
0.241583
0.241667
0.241757
0.241853
0.241951
0.242048
0.242141
0.242224
0.242293
0.242342
0.242369
0.246613
0.246618
0.246631
0.246652
0.246683
0.246725
0.246777
0.24684
0.246913
0.246993
0.24708
0.247171
0.247263
0.247355
0.247444
0.247526
0.247597
0.247656
0.247697
0.247719
0.251532
0.251542
0.251562
0.251593
0.251635
0.251688
0.251751
0.251823
0.251903
0.251989
0.252078
0.25217
0.25226
0.252348
0.25243
0.252504
0.252568
0.252619
0.252655
0.252673
0.256011
0.256023
0.256049
0.256087
0.256138
0.256199
0.256271
0.256351
0.256437
0.256527
0.25662
0.256711
0.2568
0.256885
0.256963
0.257032
0.25709
0.257136
0.257168
0.257184
0.259995
0.26001
0.260039
0.260083
0.26014
0.260209
0.260288
0.260374
0.260465
0.260559
0.260654
0.260746
0.260834
0.260917
0.260991
0.261056
0.261111
0.261153
0.261182
0.261197
0.263429
0.263445
0.263478
0.263527
0.263589
0.263663
0.263747
0.263838
0.263934
0.264031
0.264127
0.26422
0.264308
0.264389
0.264461
0.264523
0.264574
0.264614
0.264641
0.264655
0.266259
0.266276
0.266311
0.266363
0.266429
0.266508
0.266596
0.266691
0.26679
0.266889
0.266987
0.26708
0.267168
0.267247
0.267318
0.267378
0.267427
0.267465
0.267491
0.267504
0.268433
0.268452
0.268489
0.268543
0.268612
0.268694
0.268785
0.268882
0.268983
0.269085
0.269183
0.269277
0.269364
0.269443
0.269512
0.269571
0.269619
0.269655
0.26968
0.269692
0.269911
0.26993
0.269968
0.270023
0.270094
0.270178
0.270271
0.270371
0.270473
0.270575
0.270675
0.270769
0.270856
0.270934
0.271002
0.27106
0.271107
0.271142
0.271166
0.271179
0.270659
0.270678
0.270717
0.270773
0.270845
0.27093
0.271024
0.271124
0.271227
0.27133
0.27143
0.271524
0.271611
0.271689
0.271757
0.271814
0.27186
0.271895
0.271919
0.271931
0.194171
0.193743
0.193196
0.192728
0.192356
0.192083
0.191891
0.191765
0.19171
0.19171
0.191758
0.191844
0.191987
0.192208
0.192506
0.192868
0.193293
0.193794
0.194359
0.194808
0.195278
0.194748
0.194147
0.193689
0.193328
0.193068
0.192888
0.192764
0.192719
0.192722
0.192774
0.192854
0.192988
0.193208
0.193505
0.193858
0.194267
0.194759
0.195373
0.195931
0.198116
0.197538
0.196948
0.196542
0.19621
0.19597
0.19581
0.195701
0.195675
0.195682
0.195733
0.195808
0.195938
0.196157
0.196441
0.196765
0.19714
0.197593
0.198197
0.198796
0.202943
0.202574
0.202152
0.201818
0.201544
0.201337
0.201201
0.201124
0.201107
0.201123
0.201171
0.201255
0.201394
0.201596
0.201846
0.202128
0.202457
0.202848
0.203301
0.203677
0.208733
0.208528
0.208258
0.208013
0.207808
0.207651
0.207548
0.207494
0.207487
0.207513
0.20757
0.207662
0.207797
0.207976
0.208192
0.208435
0.20871
0.209014
0.20932
0.209539
0.214896
0.214784
0.214621
0.214458
0.214316
0.214208
0.214139
0.214109
0.214115
0.214152
0.214217
0.214312
0.21444
0.214598
0.214783
0.214988
0.215208
0.215434
0.215639
0.21577
0.221147
0.221086
0.220991
0.220891
0.220803
0.220737
0.2207
0.220693
0.220714
0.220761
0.220833
0.220928
0.221047
0.221188
0.221346
0.221516
0.22169
0.221857
0.221997
0.22208
0.227348
0.227316
0.227265
0.22721
0.227163
0.227132
0.227123
0.227137
0.227172
0.227229
0.227306
0.227401
0.227512
0.227638
0.227774
0.227915
0.228054
0.22818
0.228279
0.228335
0.233422
0.233408
0.233385
0.233362
0.233346
0.233344
0.233358
0.23339
0.23344
0.233505
0.233586
0.233681
0.233786
0.2339
0.234018
0.234137
0.234248
0.234346
0.23442
0.23446
0.239315
0.239311
0.239307
0.239307
0.239315
0.239335
0.239369
0.239416
0.239478
0.239552
0.239637
0.239731
0.239831
0.239936
0.240041
0.240142
0.240235
0.240313
0.240371
0.240401
0.244974
0.244978
0.244987
0.245004
0.24503
0.245067
0.245117
0.245178
0.24525
0.245331
0.24542
0.245514
0.245611
0.245709
0.245804
0.245893
0.245972
0.246037
0.246083
0.246108
0.250347
0.250356
0.250374
0.250403
0.250443
0.250495
0.250557
0.25063
0.250711
0.250799
0.250891
0.250986
0.251081
0.251173
0.251261
0.251341
0.25141
0.251466
0.251505
0.251525
0.255374
0.255387
0.255412
0.255451
0.255502
0.255565
0.255638
0.25572
0.255809
0.255903
0.255999
0.256094
0.256188
0.256276
0.256359
0.256432
0.256494
0.256543
0.256577
0.256595
0.25999
0.260006
0.260037
0.260083
0.260143
0.260216
0.260298
0.260389
0.260484
0.260583
0.260682
0.260778
0.260871
0.260957
0.261035
0.261103
0.261161
0.261205
0.261236
0.261251
0.264128
0.264146
0.264182
0.264234
0.264301
0.264381
0.264471
0.264569
0.26467
0.264773
0.264875
0.264973
0.265065
0.265149
0.265224
0.265288
0.265342
0.265382
0.26541
0.265424
0.267717
0.267737
0.267776
0.267834
0.267907
0.267993
0.268089
0.268192
0.268299
0.268405
0.268509
0.268608
0.2687
0.268783
0.268855
0.268917
0.268967
0.269005
0.269031
0.269044
0.27069
0.270711
0.270753
0.270814
0.270892
0.270984
0.271085
0.271192
0.271303
0.271412
0.271518
0.271618
0.271709
0.271791
0.271861
0.271921
0.271969
0.272005
0.272029
0.272041
0.272984
0.273006
0.273051
0.273115
0.273196
0.273291
0.273396
0.273507
0.27362
0.273732
0.273839
0.273939
0.27403
0.274111
0.27418
0.274238
0.274284
0.274318
0.274341
0.274353
0.274547
0.27457
0.274616
0.274682
0.274765
0.274863
0.27497
0.275083
0.275198
0.275311
0.275419
0.27552
0.275611
0.275691
0.275759
0.275816
0.275861
0.275894
0.275916
0.275928
0.27534
0.275363
0.27541
0.275476
0.275561
0.27566
0.275768
0.275883
0.275999
0.276112
0.276221
0.276322
0.276412
0.276492
0.27656
0.276616
0.27666
0.276693
0.276715
0.276726
0.202342
0.202123
0.201809
0.201504
0.201245
0.201047
0.200908
0.200822
0.200789
0.200801
0.200856
0.200949
0.201087
0.201279
0.201521
0.201808
0.202133
0.202485
0.20283
0.203067
0.203538
0.203301
0.20298
0.202683
0.202435
0.202246
0.202115
0.202034
0.202007
0.202023
0.202078
0.20217
0.202306
0.202494
0.202732
0.203012
0.203326
0.203671
0.204023
0.204279
0.206104
0.205871
0.205569
0.205301
0.205076
0.204906
0.20479
0.204722
0.204704
0.204725
0.204783
0.204874
0.205007
0.20519
0.205416
0.205677
0.20597
0.206291
0.206625
0.206877
0.210041
0.209868
0.209633
0.209413
0.209227
0.209084
0.20899
0.20894
0.208934
0.208962
0.209022
0.209115
0.209246
0.209419
0.209626
0.20986
0.210119
0.210397
0.21067
0.21086
0.214925
0.214814
0.214651
0.214488
0.214347
0.21424
0.214171
0.214141
0.214147
0.214184
0.214249
0.214344
0.214471
0.214629
0.214814
0.215019
0.215239
0.215464
0.215668
0.2158
0.220372
0.220304
0.2202
0.22009
0.219994
0.219923
0.219881
0.219871
0.219891
0.219937
0.220008
0.220104
0.220225
0.220369
0.220531
0.220707
0.220888
0.221065
0.221214
0.221304
0.226119
0.22608
0.226018
0.225952
0.225896
0.225857
0.225842
0.225851
0.225885
0.225941
0.226017
0.226113
0.226228
0.226358
0.226501
0.22665
0.226798
0.226935
0.227045
0.227108
0.232
0.23198
0.231949
0.231916
0.231892
0.231882
0.23189
0.231918
0.231965
0.23203
0.232111
0.232208
0.232317
0.232436
0.232561
0.232688
0.232809
0.232917
0.233
0.233045
0.237904
0.237896
0.237886
0.237879
0.23788
0.237894
0.237923
0.237968
0.238027
0.238101
0.238187
0.238284
0.238388
0.238498
0.238609
0.238719
0.23882
0.238906
0.23897
0.239005
0.243743
0.243745
0.24375
0.243762
0.243784
0.243817
0.243864
0.243923
0.243995
0.244077
0.244167
0.244264
0.244365
0.244468
0.244569
0.244664
0.24475
0.244821
0.244873
0.2449
0.249443
0.249451
0.249468
0.249494
0.249532
0.249582
0.249644
0.249717
0.249799
0.249889
0.249984
0.250082
0.25018
0.250278
0.25037
0.250456
0.25053
0.250591
0.250633
0.250656
0.254929
0.254941
0.254967
0.255005
0.255057
0.255121
0.255196
0.25528
0.255372
0.255468
0.255567
0.255667
0.255764
0.255857
0.255944
0.256021
0.256088
0.25614
0.256177
0.256196
0.260122
0.260138
0.26017
0.260219
0.260282
0.260357