# vtk DataFile Version 2.0
Pressure 3D1D coupled problem
ASCII
DATASET UNSTRUCTURED_GRID
POINTS 9261 float
0 0 0
0 0 0.1
0 0 0.2
0 0 0.3
0 0 0.4
0 0 0.5
0 0 0.6
0 0 0.7
0 0 0.8
0 0 0.9
0 0 1
0 0 1.1
0 0 1.2
0 0 1.3
0 0 1.4
0 0 1.5
0 0 1.6
0 0 1.7
0 0 1.8
0 0 1.9
0 0 2
0 0.1 0
0 0.1 0.1
0 0.1 0.2
0 0.1 0.3
0 0.1 0.4
0 0.1 0.5
0 0.1 0.6
0 0.1 0.7
0 0.1 0.8
0 0.1 0.9
0 0.1 1
0 0.1 1.1
0 0.1 1.2
0 0.1 1.3
0 0.1 1.4
0 0.1 1.5
0 0.1 1.6
0 0.1 1.7
0 0.1 1.8
0 0.1 1.9
0 0.1 2
0 0.2 0
0 0.2 0.1
0 0.2 0.2
0 0.2 0.3
0 0.2 0.4
0 0.2 0.5
0 0.2 0.6
0 0.2 0.7
0 0.2 0.8
0 0.2 0.9
0 0.2 1
0 0.2 1.1
0 0.2 1.2
0 0.2 1.3
0 0.2 1.4
0 0.2 1.5
0 0.2 1.6
0 0.2 1.7
0 0.2 1.8
0 0.2 1.9
0 0.2 2
0 0.3 0
0 0.3 0.1
0 0.3 0.2
0 0.3 0.3
0 0.3 0.4
0 0.3 0.5
0 0.3 0.6
0 0.3 0.7
0 0.3 0.8
0 0.3 0.9
0 0.3 1
0 0.3 1.1
0 0.3 1.2
0 0.3 1.3
0 0.3 1.4
0 0.3 1.5
0 0.3 1.6
0 0.3 1.7
0 0.3 1.8
0 0.3 1.9
0 0.3 2
0 0.4 0
0 0.4 0.1
0 0.4 0.2
0 0.4 0.3
0 0.4 0.4
0 0.4 0.5
0 0.4 0.6
0 0.4 0.7
0 0.4 0.8
0 0.4 0.9
0 0.4 1
0 0.4 1.1
0 0.4 1.2
0 0.4 1.3
0 0.4 1.4
0 0.4 1.5
0 0.4 1.6
0 0.4 1.7
0 0.4 1.8
0 0.4 1.9
0 0.4 2
0 0.5 0
0 0.5 0.1
0 0.5 0.2
0 0.5 0.3
0 0.5 0.4
0 0.5 0.5
0 0.5 0.6
0 0.5 0.7
0 0.5 0.8
0 0.5 0.9
0 0.5 1
0 0.5 1.1
0 0.5 1.2
0 0.5 1.3
0 0.5 1.4
0 0.5 1.5
0 0.5 1.6
0 0.5 1.7
0 0.5 1.8
0 0.5 1.9
0 0.5 2
0 0.6 0
0 0.6 0.1
0 0.6 0.2
0 0.6 0.3
0 0.6 0.4
0 0.6 0.5
0 0.6 0.6
0 0.6 0.7
0 0.6 0.8
0 0.6 0.9
0 0.6 1
0 0.6 1.1
0 0.6 1.2
0 0.6 1.3
0 0.6 1.4
0 0.6 1.5
0 0.6 1.6
0 0.6 1.7
0 0.6 1.8
0 0.6 1.9
0 0.6 2
0 0.7 0
0 0.7 0.1
0 0.7 0.2
0 0.7 0.3
0 0.7 0.4
0 0.7 0.5
0 0.7 0.6
0 0.7 0.7
0 0.7 0.8
0 0.7 0.9
0 0.7 1
0 0.7 1.1
0 0.7 1.2
0 0.7 1.3
0 0.7 1.4
0 0.7 1.5
0 0.7 1.6
0 0.7 1.7
0 0.7 1.8
0 0.7 1.9
0 0.7 2
0 0.8 0
0 0.8 0.1
0 0.8 0.2
0 0.8 0.3
0 0.8 0.4
0 0.8 0.5
0 0.8 0.6
0 0.8 0.7
0 0.8 0.8
0 0.8 0.9
0 0.8 1
0 0.8 1.1
0 0.8 1.2
0 0.8 1.3
0 0.8 1.4
0 0.8 1.5
0 0.8 1.6
0 0.8 1.7
0 0.8 1.8
0 0.8 1.9
0 0.8 2
0 0.9 0
0 0.9 0.1
0 0.9 0.2
0 0.9 0.3
0 0.9 0.4
0 0.9 0.5
0 0.9 0.6
0 0.9 0.7
0 0.9 0.8
0 0.9 0.9
0 0.9 1
0 0.9 1.1
0 0.9 1.2
0 0.9 1.3
0 0.9 1.4
0 0.9 1.5
0 0.9 1.6
0 0.9 1.7
0 0.9 1.8
0 0.9 1.9
0 0.9 2
0 1 0
0 1 0.1
0 1 0.2
0 1 0.3
0 1 0.4
0 1 0.5
0 1 0.6
0 1 0.7
0 1 0.8
0 1 0.9
0 1 1
0 1 1.1
0 1 1.2
0 1 1.3
0 1 1.4
0 1 1.5
0 1 1.6
0 1 1.7
0 1 1.8
0 1 1.9
0 1 2
0 1.1 0
0 1.1 0.1
0 1.1 0.2
0 1.1 0.3
0 1.1 0.4
0 1.1 0.5
0 1.1 0.6
0 1.1 0.7
0 1.1 0.8
0 1.1 0.9
0 1.1 1
0 1.1 1.1
0 1.1 1.2
0 1.1 1.3
0 1.1 1.4
0 1.1 1.5
0 1.1 1.6
0 1.1 1.7
0 1.1 1.8
0 1.1 1.9
0 1.1 2
0 1.2 0
0 1.2 0.1
0 1.2 0.2
0 1.2 0.3
0 1.2 0.4
0 1.2 0.5
0 1.2 0.6
0 1.2 0.7
0 1.2 0.8
0 1.2 0.9
0 1.2 1
0 1.2 1.1
0 1.2 1.2
0 1.2 1.3
0 1.2 1.4
0 1.2 1.5
0 1.2 1.6
0 1.2 1.7
0 1.2 1.8
0 1.2 1.9
0 1.2 2
0 1.3 0
0 1.3 0.1
0 1.3 0.2
0 1.3 0.3
0 1.3 0.4
0 1.3 0.5
0 1.3 0.6
0 1.3 0.7
0 1.3 0.8
0 1.3 0.9
0 1.3 1
0 1.3 1.1
0 1.3 1.2
0 1.3 1.3
0 1.3 1.4
0 1.3 1.5
0 1.3 1.6
0 1.3 1.7
0 1.3 1.8
0 1.3 1.9
0 1.3 2
0 1.4 0
0 1.4 0.1
0 1.4 0.2
0 1.4 0.3
0 1.4 0.4
0 1.4 0.5
0 1.4 0.6
0 1.4 0.7
0 1.4 0.8
0 1.4 0.9
0 1.4 1
0 1.4 1.1
0 1.4 1.2
0 1.4 1.3
0 1.4 1.4
0 1.4 1.5
0 1.4 1.6
0 1.4 1.7
0 1.4 1.8
0 1.4 1.9
0 1.4 2
0 1.5 0
0 1.5 0.1
0 1.5 0.2
0 1.5 0.3
0 1.5 0.4
0 1.5 0.5
0 1.5 0.6
0 1.5 0.7
0 1.5 0.8
0 1.5 0.9
0 1.5 1
0 1.5 1.1
0 1.5 1.2
0 1.5 1.3
0 1.5 1.4
0 1.5 1.5
0 1.5 1.6
0 1.5 1.7
0 1.5 1.8
0 1.5 1.9
0 1.5 2
0 1.6 0
0 1.6 0.1
0 1.6 0.2
0 1.6 0.3
0 1.6 0.4
0 1.6 0.5
0 1.6 0.6
0 1.6 0.7
0 1.6 0.8
0 1.6 0.9
0 1.6 1
0 1.6 1.1
0 1.6 1.2
0 1.6 1.3
0 1.6 1.4
0 1.6 1.5
0 1.6 1.6
0 1.6 1.7
0 1.6 1.8
0 1.6 1.9
0 1.6 2
0 1.7 0
0 1.7 0.1
0 1.7 0.2
0 1.7 0.3
0 1.7 0.4
0 1.7 0.5
0 1.7 0.6
0 1.7 0.7
0 1.7 0.8
0 1.7 0.9
0 1.7 1
0 1.7 1.1
0 1.7 1.2
0 1.7 1.3
0 1.7 1.4
0 1.7 1.5
0 1.7 1.6
0 1.7 1.7
0 1.7 1.8
0 1.7 1.9
0 1.7 2
0 1.8 0
0 1.8 0.1
0 1.8 0.2
0 1.8 0.3
0 1.8 0.4
0 1.8 0.5
0 1.8 0.6
0 1.8 0.7
0 1.8 0.8
0 1.8 0.9
0 1.8 1
0 1.8 1.1
0 1.8 1.2
0 1.8 1.3
0 1.8 1.4
0 1.8 1.5
0 1.8 1.6
0 1.8 1.7
0 1.8 1.8
0 1.8 1.9
0 1.8 2
0 1.9 0
0 1.9 0.1
0 1.9 0.2
0 1.9 0.3
0 1.9 0.4
0 1.9 0.5
0 1.9 0.6
0 1.9 0.7
0 1.9 0.8
0 1.9 0.9
0 1.9 1
0 1.9 1.1
0 1.9 1.2
0 1.9 1.3
0 1.9 1.4
0 1.9 1.5
0 1.9 1.6
0 1.9 1.7
0 1.9 1.8
0 1.9 1.9
0 1.9 2
0 2 0
0 2 0.1
0 2 0.2
0 2 0.3
0 2 0.4
0 2 0.5
0 2 0.6
0 2 0.7
0 2 0.8
0 2 0.9
0 2 1
0 2 1.1
0 2 1.2
0 2 1.3
0 2 1.4
0 2 1.5
0 2 1.6
0 2 1.7
0 2 1.8
0 2 1.9
0 2 2
0.1 0 0
0.1 0 0.1
0.1 0 0.2
0.1 0 0.3
0.1 0 0.4
0.1 0 0.5
0.1 0 0.6
0.1 0 0.7
0.1 0 0.8
0.1 0 0.9
0.1 0 1
0.1 0 1.1
0.1 0 1.2
0.1 0 1.3
0.1 0 1.4
0.1 0 1.5
0.1 0 1.6
0.1 0 1.7
0.1 0 1.8
0.1 0 1.9
0.1 0 2
0.1 0.1 0
0.1 0.1 0.1
0.1 0.1 0.2
0.1 0.1 0.3
0.1 0.1 0.4
0.1 0.1 0.5
0.1 0.1 0.6
0.1 0.1 0.7
0.1 0.1 0.8
0.1 0.1 0.9
0.1 0.1 1
0.1 0.1 1.1
0.1 0.1 1.2
0.1 0.1 1.3
0.1 0.1 1.4
0.1 0.1 1.5
0.1 0.1 1.6
0.1 0.1 1.7
0.1 0.1 1.8
0.1 0.1 1.9
0.1 0.1 2
0.1 0.2 0
0.1 0.2 0.1
0.1 0.2 0.2
0.1 0.2 0.3
0.1 0.2 0.4
0.1 0.2 0.5
0.1 0.2 0.6
0.1 0.2 0.7
0.1 0.2 0.8
0.1 0.2 0.9
0.1 0.2 1
0.1 0.2 1.1
0.1 0.2 1.2
0.1 0.2 1.3
0.1 0.2 1.4
0.1 0.2 1.5
0.1 0.2 1.6
0.1 0.2 1.7
0.1 0.2 1.8
0.1 0.2 1.9
0.1 0.2 2
0.1 0.3 0
0.1 0.3 0.1
0.1 0.3 0.2
0.1 0.3 0.3
0.1 0.3 0.4
0.1 0.3 0.5
0.1 0.3 0.6
0.1 0.3 0.7
0.1 0.3 0.8
0.1 0.3 0.9
0.1 0.3 1
0.1 0.3 1.1
0.1 0.3 1.2
0.1 0.3 1.3
0.1 0.3 1.4
0.1 0.3 1.5
0.1 0.3 1.6
0.1 0.3 1.7
0.1 0.3 1.8
0.1 0.3 1.9
0.1 0.3 2
0.1 0.4 0
0.1 0.4 0.1
0.1 0.4 0.2
0.1 0.4 0.3
0.1 0.4 0.4
0.1 0.4 0.5
0.1 0.4 0.6
0.1 0.4 0.7
0.1 0.4 0.8
0.1 0.4 0.9
0.1 0.4 1
0.1 0.4 1.1
0.1 0.4 1.2
0.1 0.4 1.3
0.1 0.4 1.4
0.1 0.4 1.5
0.1 0.4 1.6
0.1 0.4 1.7
0.1 0.4 1.8
0.1 0.4 1.9
0.1 0.4 2
0.1 0.5 0
0.1 0.5 0.1
0.1 0.5 0.2
0.1 0.5 0.3
0.1 0.5 0.4
0.1 0.5 0.5
0.1 0.5 0.6
0.1 0.5 0.7
0.1 0.5 0.8
0.1 0.5 0.9
0.1 0.5 1
0.1 0.5 1.1
0.1 0.5 1.2
0.1 0.5 1.3
0.1 0.5 1.4
0.1 0.5 1.5
0.1 0.5 1.6
0.1 0.5 1.7
0.1 0.5 1.8
0.1 0.5 1.9
0.1 0.5 2
0.1 0.6 0
0.1 0.6 0.1
0.1 0.6 0.2
0.1 0.6 0.3
0.1 0.6 0.4
0.1 0.6 0.5
0.1 0.6 0.6
0.1 0.6 0.7
0.1 0.6 0.8
0.1 0.6 0.9
0.1 0.6 1
0.1 0.6 1.1
0.1 0.6 1.2
0.1 0.6 1.3
0.1 0.6 1.4
0.1 0.6 1.5
0.1 0.6 1.6
0.1 0.6 1.7
0.1 0.6 1.8
0.1 0.6 1.9
0.1 0.6 2
0.1 0.7 0
0.1 0.7 0.1
0.1 0.7 0.2
0.1 0.7 0.3
0.1 0.7 0.4
0.1 0.7 0.5
0.1 0.7 0.6
0.1 0.7 0.7
0.1 0.7 0.8
0.1 0.7 0.9
0.1 0.7 1
0.1 0.7 1.1
0.1 0.7 1.2
0.1 0.7 1.3
0.1 0.7 1.4
0.1 0.7 1.5
0.1 0.7 1.6
0.1 0.7 1.7
0.1 0.7 1.8
0.1 0.7 1.9
0.1 0.7 2
0.1 0.8 0
0.1 0.8 0.1
0.1 0.8 0.2
0.1 0.8 0.3
0.1 0.8 0.4
0.1 0.8 0.5
0.1 0.8 0.6
0.1 0.8 0.7
0.1 0.8 0.8
0.1 0.8 0.9
0.1 0.8 1
0.1 0.8 1.1
0.1 0.8 1.2
0.1 0.8 1.3
0.1 0.8 1.4
0.1 0.8 1.5
0.1 0.8 1.6
0.1 0.8 1.7
0.1 0.8 1.8
0.1 0.8 1.9
0.1 0.8 2
0.1 0.9 0
0.1 0.9 0.1
0.1 0.9 0.2
0.1 0.9 0.3
0.1 0.9 0.4
0.1 0.9 0.5
0.1 0.9 0.6
0.1 0.9 0.7
0.1 0.9 0.8
0.1 0.9 0.9
0.1 0.9 1
0.1 0.9 1.1
0.1 0.9 1.2
0.1 0.9 1.3
0.1 0.9 1.4
0.1 0.9 1.5
0.1 0.9 1.6
0.1 0.9 1.7
0.1 0.9 1.8
0.1 0.9 1.9
0.1 0.9 2
0.1 1 0
0.1 1 0.1
0.1 1 0.2
0.1 1 0.3
0.1 1 0.4
0.1 1 0.5
0.1 1 0.6
0.1 1 0.7
0.1 1 0.8
0.1 1 0.9
0.1 1 1
0.1 1 1.1
0.1 1 1.2
0.1 1 1.3
0.1 1 1.4
0.1 1 1.5
0.1 1 1.6
0.1 1 1.7
0.1 1 1.8
0.1 1 1.9
0.1 1 2
0.1 1.1 0
0.1 1.1 0.1
0.1 1.1 0.2
0.1 1.1 0.3
0.1 1.1 0.4
0.1 1.1 0.5
0.1 1.1 0.6
0.1 1.1 0.7
0.1 1.1 0.8
0.1 1.1 0.9
0.1 1.1 1
0.1 1.1 1.1
0.1 1.1 1.2
0.1 1.1 1.3
0.1 1.1 1.4
0.1 1.1 1.5
0.1 1.1 1.6
0.1 1.1 1.7
0.1 1.1 1.8
0.1 1.1 1.9
0.1 1.1 2
0.1 1.2 0
0.1 1.2 0.1
0.1 1.2 0.2
0.1 1.2 0.3
0.1 1.2 0.4
0.1 1.2 0.5
0.1 1.2 0.6
0.1 1.2 0.7
0.1 1.2 0.8
0.1 1.2 0.9
0.1 1.2 1
0.1 1.2 1.1
0.1 1.2 1.2
0.1 1.2 1.3
0.1 1.2 1.4
0.1 1.2 1.5
0.1 1.2 1.6
0.1 1.2 1.7
0.1 1.2 1.8
0.1 1.2 1.9
0.1 1.2 2
0.1 1.3 0
0.1 1.3 0.1
0.1 1.3 0.2
0.1 1.3 0.3
0.1 1.3 0.4
0.1 1.3 0.5
0.1 1.3 0.6
0.1 1.3 0.7
0.1 1.3 0.8
0.1 1.3 0.9
0.1 1.3 1
0.1 1.3 1.1
0.1 1.3 1.2
0.1 1.3 1.3
0.1 1.3 1.4
0.1 1.3 1.5
0.1 1.3 1.6
0.1 1.3 1.7
0.1 1.3 1.8
0.1 1.3 1.9
0.1 1.3 2
0.1 1.4 0
0.1 1.4 0.1
0.1 1.4 0.2
0.1 1.4 0.3
0.1 1.4 0.4
0.1 1.4 0.5
0.1 1.4 0.6
0.1 1.4 0.7
0.1 1.4 0.8
0.1 1.4 0.9
0.1 1.4 1
0.1 1.4 1.1
0.1 1.4 1.2
0.1 1.4 1.3
0.1 1.4 1.4
0.1 1.4 1.5
0.1 1.4 1.6
0.1 1.4 1.7
0.1 1.4 1.8
0.1 1.4 1.9
0.1 1.4 2
0.1 1.5 0
0.1 1.5 0.1
0.1 1.5 0.2
0.1 1.5 0.3
0.1 1.5 0.4
0.1 1.5 0.5
0.1 1.5 0.6
0.1 1.5 0.7
0.1 1.5 0.8
0.1 1.5 0.9
0.1 1.5 1
0.1 1.5 1.1
0.1 1.5 1.2
0.1 1.5 1.3
0.1 1.5 1.4
0.1 1.5 1.5
0.1 1.5 1.6
0.1 1.5 1.7
0.1 1.5 1.8
0.1 1.5 1.9
0.1 1.5 2
0.1 1.6 0
0.1 1.6 0.1
0.1 1.6 0.2
0.1 1.6 0.3
0.1 1.6 0.4
0.1 1.6 0.5
0.1 1.6 0.6
0.1 1.6 0.7
0.1 1.6 0.8
0.1 1.6 0.9
0.1 1.6 1
0.1 1.6 1.1
0.1 1.6 1.2
0.1 1.6 1.3
0.1 1.6 1.4
0.1 1.6 1.5
0.1 1.6 1.6
0.1 1.6 1.7
0.1 1.6 1.8
0.1 1.6 1.9
0.1 1.6 2
0.1 1.7 0
0.1 1.7 0.1
0.1 1.7 0.2
0.1 1.7 0.3
0.1 1.7 0.4
0.1 1.7 0.5
0.1 1.7 0.6
0.1 1.7 0.7
0.1 1.7 0.8
0.1 1.7 0.9
0.1 1.7 1
0.1 1.7 1.1
0.1 1.7 1.2
0.1 1.7 1.3
0.1 1.7 1.4
0.1 1.7 1.5
0.1 1.7 1.6
0.1 1.7 1.7
0.1 1.7 1.8
0.1 1.7 1.9
0.1 1.7 2
0.1 1.8 0
0.1 1.8 0.1
0.1 1.8 0.2
0.1 1.8 0.3
0.1 1.8 0.4
0.1 1.8 0.5
0.1 1.8 0.6
0.1 1.8 0.7
0.1 1.8 0.8
0.1 1.8 0.9
0.1 1.8 1
0.1 1.8 1.1
0.1 1.8 1.2
0.1 1.8 1.3
0.1 1.8 1.4
0.1 1.8 1.5
0.1 1.8 1.6
0.1 1.8 1.7
0.1 1.8 1.8
0.1 1.8 1.9
0.1 1.8 2
0.1 1.9 0
0.1 1.9 0.1
0.1 1.9 0.2
0.1 1.9 0.3
0.1 1.9 0.4
0.1 1.9 0.5
0.1 1.9 0.6
0.1 1.9 0.7
0.1 1.9 0.8
0.1 1.9 0.9
0.1 1.9 1
0.1 1.9 1.1
0.1 1.9 1.2
0.1 1.9 1.3
0.1 1.9 1.4
0.1 1.9 1.5
0.1 1.9 1.6
0.1 1.9 1.7
0.1 1.9 1.8
0.1 1.9 1.9
0.1 1.9 2
0.1 2 0
0.1 2 0.1
0.1 2 0.2
0.1 2 0.3
0.1 2 0.4
0.1 2 0.5
0.1 2 0.6
0.1 2 0.7
0.1 2 0.8
0.1 2 0.9
0.1 2 1
0.1 2 1.1
0.1 2 1.2
0.1 2 1.3
0.1 2 1.4
0.1 2 1.5
0.1 2 1.6
0.1 2 1.7
0.1 2 1.8
0.1 2 1.9
0.1 2 2
0.2 0 0
0.2 0 0.1
0.2 0 0.2
0.2 0 0.3
0.2 0 0.4
0.2 0 0.5
0.2 0 0.6
0.2 0 0.7
0.2 0 0.8
0.2 0 0.9
0.2 0 1
0.2 0 1.1
0.2 0 1.2
0.2 0 1.3
0.2 0 1.4
0.2 0 1.5
0.2 0 1.6
0.2 0 1.7
0.2 0 1.8
0.2 0 1.9
0.2 0 2
0.2 0.1 0
0.2 0.1 0.1
0.2 0.1 0.2
0.2 0.1 0.3
0.2 0.1 0.4
0.2 0.1 0.5
0.2 0.1 0.6
0.2 0.1 0.7
0.2 0.1 0.8
0.2 0.1 0.9
0.2 0.1 1
0.2 0.1 1.1
0.2 0.1 1.2
0.2 0.1 1.3
0.2 0.1 1.4
0.2 0.1 1.5
0.2 0.1 1.6
0.2 0.1 1.7
0.2 0.1 1.8
0.2 0.1 1.9
0.2 0.1 2
0.2 0.2 0
0.2 0.2 0.1
0.2 0.2 0.2
0.2 0.2 0.3
0.2 0.2 0.4
0.2 0.2 0.5
0.2 0.2 0.6
0.2 0.2 0.7
0.2 0.2 0.8
0.2 0.2 0.9
0.2 0.2 1
0.2 0.2 1.1
0.2 0.2 1.2
0.2 0.2 1.3
0.2 0.2 1.4
0.2 0.2 1.5
0.2 0.2 1.6
0.2 0.2 1.7
0.2 0.2 1.8
0.2 0.2 1.9
[...]
CELL_DATA 8000
SCALARS Phi_sigma_(3D) float 1
LOOKUP_TABLE default
0.1574
0.156319
0.155131
0.154265
0.153593
0.153103
0.152779
0.152568
0.152483
0.152438
0.152435
0.152482
0.152635
0.152938
0.153355
0.153858
0.154509
0.155389
0.156556
0.157613
0.158089
0.156508
0.1551
0.154296
0.153628
0.153143
0.152843
0.152628
0.152588
0.15254
0.152532
0.152549
0.152681
0.153005
0.153437
0.153907
0.154517
0.155373
0.156745
0.158284
0.161804
0.160266
0.158907
0.158165
0.157564
0.157155
0.156893
0.156675
0.156629
0.156596
0.156626
0.156646
0.156749
0.15704
0.157453
0.157921
0.158483
0.159247
0.160556
0.162122
0.168879
0.168028
0.167097
0.16645
0.165975
0.165668
0.165445
0.165258
0.165178
0.165168
0.165235
0.165292
0.165396
0.165622
0.165971
0.166417
0.166919
0.167544
0.168445
0.169382
0.176931
0.176502
0.175955
0.175496
0.175142
0.174891
0.174711
0.174582
0.174522
0.174523
0.174576
0.174655
0.174779
0.17498
0.175263
0.175617
0.176023
0.176499
0.177055
0.177522
0.184812
0.184595
0.184284
0.183987
0.183739
0.183553
0.18342
0.183335
0.1833
0.183311
0.183364
0.183449
0.183575
0.183752
0.183982
0.184257
0.184566
0.184904
0.18524
0.185479
0.192227
0.192114
0.191938
0.191754
0.191592
0.191466
0.191378
0.191327
0.191314
0.191337
0.191394
0.19148
0.191599
0.191752
0.191939
0.192152
0.192383
0.192617
0.192826
0.192959
0.19914
0.199079
0.198981
0.198873
0.198774
0.198697
0.198646
0.198624
0.19863
0.198665
0.198725
0.19881
0.198919
0.199051
0.199204
0.19937
0.199543
0.199707
0.199843
0.199923
0.205577
0.205545
0.205493
0.205433
0.20538
0.20534
0.20532
0.205321
0.205344
0.205388
0.205452
0.205534
0.205634
0.205749
0.205875
0.206008
0.206139
0.206258
0.206351
0.206403
0.211569
0.211554
0.211529
0.211502
0.21148
0.211469
0.211472
0.211491
0.211528
0.21158
0.211647
0.211728
0.21182
0.211921
0.212028
0.212136
0.212238
0.212327
0.212395
0.212431
0.217132
0.217127
0.21712
0.217114
0.217114
0.217124
0.217145
0.217179
0.217226
0.217285
0.217355
0.217434
0.21752
0.217612
0.217704
0.217794
0.217877
0.217947
0.217998
0.218026
0.222265
0.222266
0.22227
0.222279
0.222295
0.22232
0.222355
0.2224
0.222456
0.22252
0.222593
0.222671
0.222753
0.222837
0.222919
0.222997
0.223067
0.223124
0.223165
0.223187
0.226954
0.226959
0.226971
0.22699
0.227017
0.227053
0.227098
0.227153
0.227215
0.227284
0.227358
0.227436
0.227515
0.227593
0.227669
0.227738
0.227799
0.227848
0.227882
0.2279
0.231173
0.231181
0.231198
0.231224
0.23126
0.231304
0.231357
0.231418
0.231485
0.231558
0.231634
0.231711
0.231789
0.231863
0.231934
0.231997
0.232052
0.232095
0.232125
0.232141
0.23489
0.2349
0.23492
0.234951
0.234993
0.235043
0.235102
0.235168
0.235239
0.235315
0.235392
0.23547
0.235546
0.235618
0.235685
0.235744
0.235795
0.235834
0.235862
0.235876
0.238066
0.238078
0.238101
0.238136
0.238181
0.238236
0.238299
0.238369
0.238444
0.238522
0.2386
0.238678
0.238753
0.238824
0.238888
0.238945
0.238992
0.239029
0.239055
0.239068
0.240666
0.240678
0.240704
0.240741
0.240789
0.240848
0.240914
0.240987
0.241064
0.241143
0.241223
0.241301
0.241375
0.241444
0.241507
0.241561
0.241607
0.241642
0.241667
0.241679
0.242653
0.242666
0.242693
0.242732
0.242782
0.242843
0.242911
0.242986
0.243065
0.243146
0.243226
0.243304
0.243378
0.243446
0.243508
0.243561
0.243605
0.243639
0.243662
0.243674
0.243998
0.244011
0.244039
0.244079
0.244131
0.244193
0.244263
0.244339
0.244418
0.2445
0.24458
0.244658
0.244732
0.2448
0.244861
0.244913
0.244956
0.24499
0.245012
0.245024
0.244677
0.244691
0.244719
0.244759
0.244812
0.244874
0.244945
0.245022
0.245102
0.245184
0.245264
0.245342
0.245416
0.245483
0.245544
0.245596
0.245638
0.245672
0.245694
0.245706
0.158204
0.156647
0.155252
0.154449
0.153786
0.153308
0.15301
0.152792
0.152747
0.152701
0.152698
0.152718
0.152847
0.153167
0.153598
0.154073
0.154682
0.15553
0.156889
0.158414
0.157066
0.153195
0.151081
0.150743
0.149964
0.149407
0.149192
0.148885
0.149077
0.148964
0.148926
0.148824
0.148885
0.149348
0.149883
0.150222
0.150734
0.151385
0.153379
0.157074
0.160439
0.156538
0.154363
0.154059
0.153345
0.152957
0.152796
0.15241
0.152554
0.152459
0.152568
0.152455
0.152425
0.152813
0.153339
0.153787
0.154254
0.154724
0.15666
0.16071
0.16924
0.167883
0.166631
0.166005
0.165537
0.165355
0.165176
0.164888
0.164791
0.164785
0.164985
0.165004
0.165009
0.165197
0.16557
0.166128
0.166596
0.167081
0.168161
0.169902
0.178032
0.177504
0.176898
0.176449
0.176107
0.175879
0.175712
0.175578
0.175524
0.175528
0.175596
0.175667
0.175776
0.175972
0.176255
0.17661
0.176999
0.177453
0.178053
0.178651
0.186008
0.185776
0.18546
0.185172
0.184935
0.184758
0.184633
0.184553
0.184524
0.184538
0.184592
0.184676
0.184799
0.184974
0.185199
0.185466
0.185765
0.186092
0.186433
0.186691
0.193362
0.193248
0.193077
0.192901
0.192747
0.192627
0.192545
0.192499
0.192491
0.192516
0.192573
0.19266
0.192777
0.192928
0.193111
0.193318
0.193542
0.193769
0.193975
0.194108
0.200197
0.200138
0.200044
0.199942
0.199849
0.199777
0.199731
0.199713
0.199722
0.199759
0.19982
0.199905
0.200014
0.200144
0.200294
0.200457
0.200624
0.200784
0.200916
0.200995
0.206577
0.206547
0.206497
0.206442
0.206392
0.206357
0.206341
0.206345
0.20637
0.206416
0.206481
0.206565
0.206664
0.206778
0.206902
0.207032
0.20716
0.207276
0.207367
0.207418
0.212537
0.212523
0.2125
0.212476
0.212457
0.21245
0.212456
0.212478
0.212517
0.212571
0.212639
0.212721
0.212813
0.212914
0.21302
0.213126
0.213226
0.213314
0.213379
0.213415
0.21809
0.218086
0.21808
0.218077
0.21808
0.218092
0.218117
0.218153
0.218202
0.218263
0.218334
0.218414
0.218501
0.218592
0.218684
0.218773
0.218855
0.218924
0.218974
0.219001
0.223231
0.223233
0.223239
0.22325
0.223268
0.223295
0.223333
0.223381
0.223438
0.223505
0.223578
0.223658
0.22374
0.223824
0.223907
0.223984
0.224053
0.22411
0.22415
0.224172
0.227941
0.227947
0.22796
0.22798
0.22801
0.228048
0.228096
0.228153
0.228217
0.228288
0.228364
0.228443
0.228523
0.228602
0.228677
0.228746
0.228807
0.228855
0.228889
0.228907
0.232188
0.232197
0.232216
0.232243
0.232281
0.232328
0.232383
0.232447
0.232516
0.232591
0.232669
0.232748
0.232826
0.232901
0.232972
0.233035
0.23309
0.233133
0.233163
0.233178
0.235938
0.235949
0.235971
0.236004
0.236047
0.2361
0.236162
0.23623
0.236304
0.236382
0.236461
0.23654
0.236617
0.23669
0.236757
0.236817
0.236867
0.236906
0.236934
0.236948
0.239148
0.239161
0.239185
0.239222
0.23927
0.239327
0.239393
0.239466
0.239543
0.239623
0.239704
0.239783
0.239859
0.239931
0.239995
0.240052
0.240099
0.240136
0.240162
0.240175
0.241779
0.241793
0.241819
0.241859
0.241909
0.24197
0.24204
0.242116
0.242195
0.242277
0.242359
0.242438
0.242514
0.242584
0.242647
0.242701
0.242747
0.242782
0.242806
0.242818
0.243793
0.243807
0.243835
0.243876
0.243929
0.243992
0.244064
0.244142
0.244223
0.244306
0.244389
0.244468
0.244544
0.244613
0.244674
0.244728
0.244772
0.244806
0.244829
0.244841
0.245156
0.245171
0.245199
0.245242
0.245296
0.245361
0.245434
0.245513
0.245596
0.24568
0.245763
0.245842
0.245917
0.245986
0.246047
0.246099
0.246142
0.246176
0.246198
0.24621
0.245845
0.24586
0.245889
0.245932
0.245987
0.246053
0.246127
0.246206
0.24629
0.246374
0.246457
0.246536
0.246611
0.246679
0.24674
0.246792
0.246835
0.246868
0.24689
0.246902
0.162129
0.160694
0.159376
0.158626
0.158039
0.157658
0.1574
0.157169
0.157105
0.157077
0.157132
0.157157
0.157249
0.157523
0.157933
0.158424
0.158987
0.159729
0.160987
0.162501
0.160761
0.157255
0.155108
0.154686
0.154013
0.153755
0.153603
0.153155
0.153202
0.153131
0.153366
0.153267
0.153177
0.153484
0.153999
0.154589
0.155069
0.155475
0.157297
0.16125
0.164334
0.160717
0.158687
0.158407
0.157759
0.157402
0.157256
0.15691
0.15705
0.156971
0.157069
0.156969
0.15695
0.15732
0.157814
0.158224
0.158649
0.159093
0.160914
0.164663
0.172817
0.171188
0.170149
0.169773
0.169295
0.168849
0.168651
0.168565
0.168662
0.168625
0.16852
0.168537
0.168706
0.16905
0.1694
0.169599
0.170004
0.170634
0.171749
0.173082
0.181004
0.180457
0.179917
0.179542
0.179222
0.178969
0.178812
0.178725
0.178714
0.178716
0.178735
0.178803
0.178941
0.179159
0.179421
0.179699
0.180049
0.180497
0.181067
0.18158
0.188587
0.188365
0.18808
0.187826
0.187611
0.187444
0.187332
0.18727
0.187255
0.187273
0.187321
0.187404
0.18753
0.187704
0.187915
0.188156
0.188431
0.188738
0.189054
0.189285
0.195656
0.195552
0.195398
0.195241
0.195104
0.194997
0.194926
0.194891
0.19489
0.19492
0.194978
0.195064
0.195181
0.195328
0.195501
0.195695
0.195903
0.196115
0.196305
0.196427
0.202295
0.202243
0.20216
0.202069
0.201988
0.201926
0.201889
0.201879
0.201894
0.201935
0.201998
0.202084
0.202191
0.202318
0.202462
0.202617
0.202775
0.202924
0.203048
0.20312
0.208555
0.208528
0.208486
0.208438
0.208397
0.20837
0.208361
0.208371
0.208402
0.208451
0.208519
0.208603
0.208702
0.208814
0.208935
0.209059
0.209181
0.209291
0.209376
0.209424
0.214454
0.214443
0.214425
0.214406
0.214394
0.214393
0.214405
0.214433
0.214476
0.214533
0.214604
0.214687
0.214779
0.214879
0.214983
0.215086
0.215183
0.215266
0.215329
0.215363
0.219993
0.219991
0.219989
0.21999
0.219998
0.220016
0.220045
0.220087
0.22014
0.220205
0.220278
0.22036
0.220448
0.220538
0.220629
0.220717
0.220796
0.220863
0.220912
0.220937
0.225155
0.225158
0.225167
0.225181
0.225204
0.225237
0.225279
0.225332
0.225394
0.225464
0.22554
0.225621
0.225705
0.22579
0.225872
0.225948
0.226016
0.226071
0.226111
0.226131
0.229909
0.229917
0.229932
0.229957
0.229991
0.230034
0.230087
0.230148
0.230217
0.230292
0.230371
0.230452
0.230533
0.230613
0.230688
0.230757
0.230817
0.230865
0.230898
0.230915
0.234219
0.234229
0.23425
0.234281
0.234323
0.234375
0.234435
0.234504
0.234578
0.234657
0.234738
0.234819
0.234899
0.234976
0.235046
0.23511
0.235164
0.235206
0.235236
0.235251
0.238038
0.23805
0.238075
0.238111
0.238159
0.238217
0.238284
0.238358
0.238437
0.238519
0.238602
0.238684
0.238763
0.238837
0.238904
0.238964
0.239014
0.239053
0.239079
0.239093
0.241319
0.241333
0.24136
0.241401
0.241453
0.241516
0.241588
0.241666
0.241749
0.241833
0.241918
0.242
0.242078
0.24215
0.242216
0.242272
0.242319
0.242356
0.242381
0.242394
0.244015
0.24403
0.244059
0.244103
0.244159
0.244226
0.244301
0.244382
0.244468
0.244554
0.24464
0.244722
0.2448
0.244871
0.244935
0.24499
0.245035
0.245069
0.245093
0.245105
0.246083
0.246098
0.246129
0.246175
0.246233
0.246303
0.246381
0.246464
0.246552
0.24664
0.246726
0.246809
0.246886
0.246957
0.247019
0.247072
0.247116
0.24715
0.247172
0.247184
0.247485
0.247501
0.247533
0.24758
0.24764
0.247711
0.247791
0.247876
0.247964
0.248053
0.24814
0.248223
0.2483
0.24837
0.248432
0.248484
0.248527
0.24856
0.248582
0.248593
0.248195
0.248211
0.248243
0.248291
0.248352
0.248423
0.248504
0.24859
0.248679
0.248768
0.248855
0.248938
0.249015
0.249085
0.249146
0.249198
0.24924
0.249273
0.249295
0.249306
0.16932
0.168527
0.167659
0.167039
0.166568
0.166242
0.166015
0.165847
0.16578
0.165766
0.165809
0.165869
0.165991
0.166228
0.166569
0.166986
0.16748
0.16811
0.168969
0.169796
0.169828
0.168572
0.167477
0.1669
0.16643
0.166131
0.16593
0.165735
0.165694
0.16568
0.165747
0.16578
0.165865
0.166109
0.166468
0.166889
0.167351
0.167936
0.168983
0.170324
0.172642
0.171008
0.16985
0.16942
0.168958
0.168661
0.168492
0.168299
0.168319
0.168295
0.168352
0.16836
0.168436
0.168705
0.169065
0.169428
0.169838
0.17034
0.171437
0.173125
0.178873
0.178094
0.177398
0.176985
0.176628
0.176351
0.176184
0.176086
0.176085
0.176082
0.176096
0.176151
0.176284
0.176519
0.176803
0.177092
0.177461
0.177954
0.178671
0.179411
0.185671
0.185324
0.184929
0.184616
0.184356
0.184155
0.184025
0.183954
0.183941
0.183953
0.183991
0.184069
0.1842
0.184392
0.184623
0.184882
0.18519
0.185561
0.185985
0.186329
0.192442
0.192279
0.192058
0.19185
0.191673
0.191536
0.191445
0.191399
0.191393
0.191418
0.191471
0.191556
0.191679
0.191841
0.192034
0.192251
0.192494
0.192756
0.193012
0.193188
0.19902
0.198938
0.198814
0.198687
0.198574
0.198488
0.198433
0.198411
0.198419
0.198455
0.198517
0.198604
0.198718
0.198857
0.199018
0.199195
0.199382
0.199568
0.19973
0.19983
0.205361
0.205319
0.205252
0.20518
0.205116
0.205069
0.205045
0.205045
0.205068
0.205114
0.205181
0.205268
0.205373
0.205495
0.205631
0.205774
0.205919
0.206053
0.206162
0.206225
0.211453
0.211432
0.211399
0.211364
0.211335
0.211319
0.21132
0.211339
0.211377
0.211432
0.211502
0.211588
0.211686
0.211795
0.21191
0.212028
0.212141
0.212242
0.21232
0.212363
0.217277
0.217269
0.217258
0.217248
0.217245
0.217252
0.217274
0.217309
0.217358
0.217421
0.217495
0.21758
0.217672
0.217771
0.217871
0.21797
0.218061
0.21814
0.218198
0.218229
0.222809
0.222809
0.222812
0.22282
0.222835
0.222861
0.222898
0.222947
0.223007
0.223076
0.223154
0.223238
0.223326
0.223417
0.223506
0.223591
0.223667
0.223731
0.223777
0.223801
0.228013
0.228019
0.228032
0.228052
0.228082
0.228122
0.228172
0.228231
0.2283
0.228375
0.228456
0.22854
0.228625
0.22871
0.228791
0.228866
0.228932
0.228985
0.229023
0.229043
0.232847
0.232857
0.232876
0.232906
0.232947
0.232997
0.233057
0.233126
0.233201
0.233282
0.233365
0.23345
0.233533
0.233614
0.233689
0.233757
0.233815
0.233862
0.233894
0.233911
0.237258
0.23727
0.237295
0.237332
0.237381
0.23744
0.237509
0.237585
0.237666
0.237751
0.237837
0.237922
0.238004
0.238082
0.238153
0.238216
0.238269
0.23831
0.238339
0.238354
0.24119
0.241205
0.241234
0.241276
0.241331
0.241397
0.241472
0.241554
0.241641
0.241729
0.241817
0.241903
0.241985
0.24206
0.242128
0.242187
0.242236
0.242274
0.2423
0.242314
0.244585
0.244601
0.244633
0.24468
0.24474
0.244812
0.244892
0.244979
0.245069
0.245161
0.245251
0.245337
0.245418
0.245492
0.245558
0.245614
0.245661
0.245696
0.24572
0.245733
0.247386
0.247404
0.247438
0.247488
0.247552
0.247628
0.247712
0.247803
0.247896
0.24799
0.248081
0.248168
0.248249
0.248322
0.248386
0.24844
0.248484
0.248518
0.248541
0.248552
0.249541
0.249559
0.249595
0.249648
0.249715
0.249793
0.249881
0.249974
0.25007
0.250165
0.250258
0.250345
0.250426
0.250498
0.25056
0.250613
0.250656
0.250688
0.25071
0.250721
0.251006
0.251025
0.251062
0.251116
0.251185
0.251265
0.251355
0.25145
0.251547
0.251644
0.251737
0.251824
0.251905
0.251976
0.252038
0.25209
0.252131
0.252163
0.252184
0.252195
0.251748
0.251767
0.251805
0.251859
0.251929
0.252011
0.252101
0.252197
0.252295
0.252392
0.252486
0.252573
0.252653
0.252724
0.252786
0.252837
0.252878
0.252909
0.25293
0.252941
0.177281
0.176879
0.176364
0.175924
0.175574
0.175316
0.175135
0.175015
0.174963
0.174961
0.175004
0.175083
0.175215
0.175421
0.175699
0.176037
0.176435
0.176905
0.177435
0.177856
0.178351
0.177853
0.177287
0.176857
0.176517
0.176272
0.176102
0.175984
0.175941
0.175942
0.175989
0.176062
0.176186
0.176391
0.176667
0.176998
0.17738
0.177841
0.178417
0.178941
0.181079
0.180535
0.17998
0.179598
0.179286
0.179059
0.178908
0.178804
0.178779
0.178784
0.17883
0.178898
0.179019
0.179222
0.179487
0.17979
0.18014
0.180565
0.181132
0.181694
0.185706
0.185359
0.184961
0.184647
0.184389
0.184194
0.184066
0.183992
0.183976
0.183989
0.184032
0.18411
0.184238
0.184426
0.184658
0.184921
0.185229
0.185595
0.18602
0.186373
0.191265
0.191072
0.190818
0.190588
0.190395
0.190247
0.190149
0.190098
0.190091
0.190114
0.190166
0.19025
0.190375
0.190541
0.190742
0.190969
0.191225
0.191509
0.191796
0.192002
0.197201
0.197096
0.196942
0.196789
0.196656
0.196554
0.196489
0.19646
0.196465
0.196498
0.196558
0.196645
0.196763
0.19691
0.197082
0.197272
0.197478
0.197689
0.19788
0.198003
0.203243
0.203186
0.203097
0.203003
0.20292
0.202858
0.202823
0.202816
0.202835
0.202878
0.202944
0.203032
0.203142
0.203272
0.203419
0.203577
0.203739
0.203895
0.204025
0.204103
0.20926
0.20923
0.209182
0.209131
0.209087
0.209058
0.20905
0.209062
0.209095
0.209148
0.209219
0.209306
0.209409
0.209526
0.209651
0.209782
0.20991
0.210028
0.21012
0.210172
0.215177
0.215163
0.215142
0.215121
0.215107
0.215105
0.215118
0.215148
0.215194
0.215255
0.21533
0.215418
0.215515
0.21562
0.215729
0.215839
0.215942
0.216032
0.216101
0.216138
0.220937
0.220934
0.22093
0.220931
0.220939
0.220958
0.22099
0.221035
0.221093
0.221162
0.221241
0.221328
0.221421
0.221517
0.221614
0.221707
0.221793
0.221865
0.221918
0.221946
0.226488
0.226492
0.226501
0.226517
0.226543
0.226579
0.226626
0.226684
0.226751
0.226827
0.22691
0.226997
0.227087
0.227177
0.227264
0.227345
0.227418
0.227477
0.22752
0.227542
0.231774
0.231782
0.2318
0.231829
0.231867
0.231917
0.231977
0.232046
0.232122
0.232204
0.23229
0.232378
0.232466
0.232551
0.232631
0.232704
0.232767
0.232818
0.232854
0.232872
0.236733
0.236745
0.23677
0.236807
0.236857
0.236917
0.236988
0.237066
0.23715
0.237238
0.237327
0.237416
0.237502
0.237583
0.237658
0.237725
0.237781
0.237826
0.237857
0.237873
0.241297
0.241313
0.241343
0.241388
0.241446
0.241515
0.241595
0.241681
0.241771
0.241864
0.241957
0.242046
0.242132
0.242211
0.242282
0.242344
0.242395
0.242435
0.242462
0.242476
0.245397
0.245414
0.245449
0.2455
0.245565
0.245642
0.245729
0.245822
0.245918
0.246015
0.24611
0.246201
0.246286
0.246363
0.246431
0.246489
0.246537
0.246573
0.246598
0.24661
0.248959
0.248978
0.249016
0.249072
0.249143
0.249226
0.249319
0.249418
0.249519
0.249619
0.249717
0.249809
0.249893
0.249969
0.250034
0.25009
0.250134
0.250168
0.25019
0.250202
0.251913
0.251933
0.251974
0.252034
0.25211
0.252198
0.252295
0.252398
0.252503
0.252607
0.252706
0.252799
0.252883
0.252957
0.253021
0.253074
0.253116
0.253148
0.253169
0.25318
0.254194
0.254216
0.254259
0.254322
0.254401
0.254493
0.254594
0.2547
0.254808
0.254914
0.255014
0.255108
0.255191
0.255265
0.255327
0.255379
0.255419
0.255449
0.255469
0.255479
0.25575
0.255772
0.255817
0.255881
0.255962
0.256057
0.256161
0.256269
0.256379
0.256486
0.256587
0.256681
0.256765
0.256837
0.256899
0.256949
0.256988
0.257017
0.257036
0.257046
0.256539
0.256562
0.256607
0.256672
0.256755
0.256851
0.256955
0.257065
0.257176
0.257283
0.257385
0.257479
0.257562
0.257635
0.257696
0.257745
0.257784
0.257812
0.257831
0.25784
0.185073
0.184867
0.184571
0.184284
0.184041
0.183854
0.183722
0.18364
0.183608
0.183619
0.183668
0.183754
0.183882
0.18406
0.184286
0.184553
0.184857
0.185186
0.18551
0.185732
0.18623
0.186007
0.185705
0.185426
0.185192
0.185014
0.18489
0.184814
0.184787
0.1848
0.184851
0.184935
0.18506
0.185236
0.185458
0.185718
0.186012
0.186335
0.186665
0.186905
0.188708
0.188489
0.188205
0.187953
0.187741
0.187581
0.187471
0.187406
0.187389
0.187407
0.18746
0.187543
0.187666
0.187836
0.188047
0.18829
0.188563
0.188864
0.189177
0.189413
0.192508
0.192345
0.192124
0.191917
0.191742
0.191607
0.191518
0.191471
0.191464
0.191489
0.191544
0.19163
0.191751
0.191911
0.192103
0.192321
0.192563
0.192823
0.193078
0.193257
0.197228
0.197123
0.19697
0.196817
0.196684
0.196583
0.196518
0.196489
0.196494
0.196528
0.196588
0.196675
0.196793
0.196939
0.197111
0.197301
0.197506
0.197716
0.197908
0.198031
0.202506
0.202442
0.202344
0.202241
0.202151
0.202084
0.202045
0.202035
0.202053
0.202095
0.202161
0.202249
0.202361
0.202494
0.202645
0.202808
0.202977
0.203141
0.20328
0.203364
0.208094
0.208058
0.208
0.207938
0.207885
0.207849
0.207835
0.207843
0.207874
0.207926
0.207996
0.208085
0.208191
0.208311
0.208443
0.208581
0.208719
0.208846
0.208948
0.209007
0.213832
0.213814
0.213785
0.213755
0.213732
0.213723
0.213731
0.213757
0.213801
0.213861
0.213937
0.214026
0.214126
0.214236
0.214352
0.214469
0.214582
0.214681
0.214758
0.2148
0.219613
0.219607
0.219598
0.219592
0.219593
0.219607
0.219635
0.219677
0.219733
0.219802
0.219881
0.219971
0.220067
0.220168
0.220271
0.220372
0.220465
0.220544
0.220603
0.220635
0.225351
0.225353
0.225358
0.22537
0.225392
0.225424
0.225469
0.225525
0.225592
0.225669
0.225753
0.225843
0.225936
0.226031
0.226124
0.226211
0.22629
0.226355
0.226402
0.226427
0.23097
0.230977
0.230994
0.23102
0.231057
0.231105
0.231164
0.231233
0.231311
0.231395
0.231483
0.231574
0.231665
0.231755
0.231839
0.231917
0.231985
0.23204
0.232079
0.2321
0.236392
0.236404
0.236429
0.236467
0.236517
0.236578
0.23665
0.236731
0.236817
0.236908
0.237001
0.237093
0.237183
0.237268
0.237347
0.237417
0.237477
0.237525
0.237558
0.237575
0.241538
0.241554
0.241586