# vtk DataFile Version 2.0
Pressure 3D1D coupled problem
ASCII
DATASET UNSTRUCTURED_GRID
POINTS 9261 float
0 0 0
0 0 0.1
0 0 0.2
0 0 0.3
0 0 0.4
0 0 0.5
0 0 0.6
0 0 0.7
0 0 0.8
0 0 0.9
0 0 1
0 0 1.1
0 0 1.2
0 0 1.3
0 0 1.4
0 0 1.5
0 0 1.6
0 0 1.7
0 0 1.8
0 0 1.9
0 0 2
0 0.1 0
0 0.1 0.1
0 0.1 0.2
0 0.1 0.3
0 0.1 0.4
0 0.1 0.5
0 0.1 0.6
0 0.1 0.7
0 0.1 0.8
0 0.1 0.9
0 0.1 1
0 0.1 1.1
0 0.1 1.2
0 0.1 1.3
0 0.1 1.4
0 0.1 1.5
0 0.1 1.6
0 0.1 1.7
0 0.1 1.8
0 0.1 1.9
0 0.1 2
0 0.2 0
0 0.2 0.1
0 0.2 0.2
0 0.2 0.3
0 0.2 0.4
0 0.2 0.5
0 0.2 0.6
0 0.2 0.7
0 0.2 0.8
0 0.2 0.9
0 0.2 1
0 0.2 1.1
0 0.2 1.2
0 0.2 1.3
0 0.2 1.4
0 0.2 1.5
0 0.2 1.6
0 0.2 1.7
0 0.2 1.8
0 0.2 1.9
0 0.2 2
0 0.3 0
0 0.3 0.1
0 0.3 0.2
0 0.3 0.3
0 0.3 0.4
0 0.3 0.5
0 0.3 0.6
0 0.3 0.7
0 0.3 0.8
0 0.3 0.9
0 0.3 1
0 0.3 1.1
0 0.3 1.2
0 0.3 1.3
0 0.3 1.4
0 0.3 1.5
0 0.3 1.6
0 0.3 1.7
0 0.3 1.8
0 0.3 1.9
0 0.3 2
0 0.4 0
0 0.4 0.1
0 0.4 0.2
0 0.4 0.3
0 0.4 0.4
0 0.4 0.5
0 0.4 0.6
0 0.4 0.7
0 0.4 0.8
0 0.4 0.9
0 0.4 1
0 0.4 1.1
0 0.4 1.2
0 0.4 1.3
0 0.4 1.4
0 0.4 1.5
0 0.4 1.6
0 0.4 1.7
0 0.4 1.8
0 0.4 1.9
0 0.4 2
0 0.5 0
0 0.5 0.1
0 0.5 0.2
0 0.5 0.3
0 0.5 0.4
0 0.5 0.5
0 0.5 0.6
0 0.5 0.7
0 0.5 0.8
0 0.5 0.9
0 0.5 1
0 0.5 1.1
0 0.5 1.2
0 0.5 1.3
0 0.5 1.4
0 0.5 1.5
0 0.5 1.6
0 0.5 1.7
0 0.5 1.8
0 0.5 1.9
0 0.5 2
0 0.6 0
0 0.6 0.1
0 0.6 0.2
0 0.6 0.3
0 0.6 0.4
0 0.6 0.5
0 0.6 0.6
0 0.6 0.7
0 0.6 0.8
0 0.6 0.9
0 0.6 1
0 0.6 1.1
0 0.6 1.2
0 0.6 1.3
0 0.6 1.4
0 0.6 1.5
0 0.6 1.6
0 0.6 1.7
0 0.6 1.8
0 0.6 1.9
0 0.6 2
0 0.7 0
0 0.7 0.1
0 0.7 0.2
0 0.7 0.3
0 0.7 0.4
0 0.7 0.5
0 0.7 0.6
0 0.7 0.7
0 0.7 0.8
0 0.7 0.9
0 0.7 1
0 0.7 1.1
0 0.7 1.2
0 0.7 1.3
0 0.7 1.4
0 0.7 1.5
0 0.7 1.6
0 0.7 1.7
0 0.7 1.8
0 0.7 1.9
0 0.7 2
0 0.8 0
0 0.8 0.1
0 0.8 0.2
0 0.8 0.3
0 0.8 0.4
0 0.8 0.5
0 0.8 0.6
0 0.8 0.7
0 0.8 0.8
0 0.8 0.9
0 0.8 1
0 0.8 1.1
0 0.8 1.2
0 0.8 1.3
0 0.8 1.4
0 0.8 1.5
0 0.8 1.6
0 0.8 1.7
0 0.8 1.8
0 0.8 1.9
0 0.8 2
0 0.9 0
0 0.9 0.1
0 0.9 0.2
0 0.9 0.3
0 0.9 0.4
0 0.9 0.5
0 0.9 0.6
0 0.9 0.7
0 0.9 0.8
0 0.9 0.9
0 0.9 1
0 0.9 1.1
0 0.9 1.2
0 0.9 1.3
0 0.9 1.4
0 0.9 1.5
0 0.9 1.6
0 0.9 1.7
0 0.9 1.8
0 0.9 1.9
0 0.9 2
0 1 0
0 1 0.1
0 1 0.2
0 1 0.3
0 1 0.4
0 1 0.5
0 1 0.6
0 1 0.7
0 1 0.8
0 1 0.9
0 1 1
0 1 1.1
0 1 1.2
0 1 1.3
0 1 1.4
0 1 1.5
0 1 1.6
0 1 1.7
0 1 1.8
0 1 1.9
0 1 2
0 1.1 0
0 1.1 0.1
0 1.1 0.2
0 1.1 0.3
0 1.1 0.4
0 1.1 0.5
0 1.1 0.6
0 1.1 0.7
0 1.1 0.8
0 1.1 0.9
0 1.1 1
0 1.1 1.1
0 1.1 1.2
0 1.1 1.3
0 1.1 1.4
0 1.1 1.5
0 1.1 1.6
0 1.1 1.7
0 1.1 1.8
0 1.1 1.9
0 1.1 2
0 1.2 0
0 1.2 0.1
0 1.2 0.2
0 1.2 0.3
0 1.2 0.4
0 1.2 0.5
0 1.2 0.6
0 1.2 0.7
0 1.2 0.8
0 1.2 0.9
0 1.2 1
0 1.2 1.1
0 1.2 1.2
0 1.2 1.3
0 1.2 1.4
0 1.2 1.5
0 1.2 1.6
0 1.2 1.7
0 1.2 1.8
0 1.2 1.9
0 1.2 2
0 1.3 0
0 1.3 0.1
0 1.3 0.2
0 1.3 0.3
0 1.3 0.4
0 1.3 0.5
0 1.3 0.6
0 1.3 0.7
0 1.3 0.8
0 1.3 0.9
0 1.3 1
0 1.3 1.1
0 1.3 1.2
0 1.3 1.3
0 1.3 1.4
0 1.3 1.5
0 1.3 1.6
0 1.3 1.7
0 1.3 1.8
0 1.3 1.9
0 1.3 2
0 1.4 0
0 1.4 0.1
0 1.4 0.2
0 1.4 0.3
0 1.4 0.4
0 1.4 0.5
0 1.4 0.6
0 1.4 0.7
0 1.4 0.8
0 1.4 0.9
0 1.4 1
0 1.4 1.1
0 1.4 1.2
0 1.4 1.3
0 1.4 1.4
0 1.4 1.5
0 1.4 1.6
0 1.4 1.7
0 1.4 1.8
0 1.4 1.9
0 1.4 2
0 1.5 0
0 1.5 0.1
0 1.5 0.2
0 1.5 0.3
0 1.5 0.4
0 1.5 0.5
0 1.5 0.6
0 1.5 0.7
0 1.5 0.8
0 1.5 0.9
0 1.5 1
0 1.5 1.1
0 1.5 1.2
0 1.5 1.3
0 1.5 1.4
0 1.5 1.5
0 1.5 1.6
0 1.5 1.7
0 1.5 1.8
0 1.5 1.9
0 1.5 2
0 1.6 0
0 1.6 0.1
0 1.6 0.2
0 1.6 0.3
0 1.6 0.4
0 1.6 0.5
0 1.6 0.6
0 1.6 0.7
0 1.6 0.8
0 1.6 0.9
0 1.6 1
0 1.6 1.1
0 1.6 1.2
0 1.6 1.3
0 1.6 1.4
0 1.6 1.5
0 1.6 1.6
0 1.6 1.7
0 1.6 1.8
0 1.6 1.9
0 1.6 2
0 1.7 0
0 1.7 0.1
0 1.7 0.2
0 1.7 0.3
0 1.7 0.4
0 1.7 0.5
0 1.7 0.6
0 1.7 0.7
0 1.7 0.8
0 1.7 0.9
0 1.7 1
0 1.7 1.1
0 1.7 1.2
0 1.7 1.3
0 1.7 1.4
0 1.7 1.5
0 1.7 1.6
0 1.7 1.7
0 1.7 1.8
0 1.7 1.9
0 1.7 2
0 1.8 0
0 1.8 0.1
0 1.8 0.2
0 1.8 0.3
0 1.8 0.4
0 1.8 0.5
0 1.8 0.6
0 1.8 0.7
0 1.8 0.8
0 1.8 0.9
0 1.8 1
0 1.8 1.1
0 1.8 1.2
0 1.8 1.3
0 1.8 1.4
0 1.8 1.5
0 1.8 1.6
0 1.8 1.7
0 1.8 1.8
0 1.8 1.9
0 1.8 2
0 1.9 0
0 1.9 0.1
0 1.9 0.2
0 1.9 0.3
0 1.9 0.4
0 1.9 0.5
0 1.9 0.6
0 1.9 0.7
0 1.9 0.8
0 1.9 0.9
0 1.9 1
0 1.9 1.1
0 1.9 1.2
0 1.9 1.3
0 1.9 1.4
0 1.9 1.5
0 1.9 1.6
0 1.9 1.7
0 1.9 1.8
0 1.9 1.9
0 1.9 2
0 2 0
0 2 0.1
0 2 0.2
0 2 0.3
0 2 0.4
0 2 0.5
0 2 0.6
0 2 0.7
0 2 0.8
0 2 0.9
0 2 1
0 2 1.1
0 2 1.2
0 2 1.3
0 2 1.4
0 2 1.5
0 2 1.6
0 2 1.7
0 2 1.8
0 2 1.9
0 2 2
0.1 0 0
0.1 0 0.1
0.1 0 0.2
0.1 0 0.3
0.1 0 0.4
0.1 0 0.5
0.1 0 0.6
0.1 0 0.7
0.1 0 0.8
0.1 0 0.9
0.1 0 1
0.1 0 1.1
0.1 0 1.2
0.1 0 1.3
0.1 0 1.4
0.1 0 1.5
0.1 0 1.6
0.1 0 1.7
0.1 0 1.8
0.1 0 1.9
0.1 0 2
0.1 0.1 0
0.1 0.1 0.1
0.1 0.1 0.2
0.1 0.1 0.3
0.1 0.1 0.4
0.1 0.1 0.5
0.1 0.1 0.6
0.1 0.1 0.7
0.1 0.1 0.8
0.1 0.1 0.9
0.1 0.1 1
0.1 0.1 1.1
0.1 0.1 1.2
0.1 0.1 1.3
0.1 0.1 1.4
0.1 0.1 1.5
0.1 0.1 1.6
0.1 0.1 1.7
0.1 0.1 1.8
0.1 0.1 1.9
0.1 0.1 2
0.1 0.2 0
0.1 0.2 0.1
0.1 0.2 0.2
0.1 0.2 0.3
0.1 0.2 0.4
0.1 0.2 0.5
0.1 0.2 0.6
0.1 0.2 0.7
0.1 0.2 0.8
0.1 0.2 0.9
0.1 0.2 1
0.1 0.2 1.1
0.1 0.2 1.2
0.1 0.2 1.3
0.1 0.2 1.4
0.1 0.2 1.5
0.1 0.2 1.6
0.1 0.2 1.7
0.1 0.2 1.8
0.1 0.2 1.9
0.1 0.2 2
0.1 0.3 0
0.1 0.3 0.1
0.1 0.3 0.2
0.1 0.3 0.3
0.1 0.3 0.4
0.1 0.3 0.5
0.1 0.3 0.6
0.1 0.3 0.7
0.1 0.3 0.8
0.1 0.3 0.9
0.1 0.3 1
0.1 0.3 1.1
0.1 0.3 1.2
0.1 0.3 1.3
0.1 0.3 1.4
0.1 0.3 1.5
0.1 0.3 1.6
0.1 0.3 1.7
0.1 0.3 1.8
0.1 0.3 1.9
0.1 0.3 2
0.1 0.4 0
0.1 0.4 0.1
0.1 0.4 0.2
0.1 0.4 0.3
0.1 0.4 0.4
0.1 0.4 0.5
0.1 0.4 0.6
0.1 0.4 0.7
0.1 0.4 0.8
0.1 0.4 0.9
0.1 0.4 1
0.1 0.4 1.1
0.1 0.4 1.2
0.1 0.4 1.3
0.1 0.4 1.4
0.1 0.4 1.5
0.1 0.4 1.6
0.1 0.4 1.7
0.1 0.4 1.8
0.1 0.4 1.9
0.1 0.4 2
0.1 0.5 0
0.1 0.5 0.1
0.1 0.5 0.2
0.1 0.5 0.3
0.1 0.5 0.4
0.1 0.5 0.5
0.1 0.5 0.6
0.1 0.5 0.7
0.1 0.5 0.8
0.1 0.5 0.9
0.1 0.5 1
0.1 0.5 1.1
0.1 0.5 1.2
0.1 0.5 1.3
0.1 0.5 1.4
0.1 0.5 1.5
0.1 0.5 1.6
0.1 0.5 1.7
0.1 0.5 1.8
0.1 0.5 1.9
0.1 0.5 2
0.1 0.6 0
0.1 0.6 0.1
0.1 0.6 0.2
0.1 0.6 0.3
0.1 0.6 0.4
0.1 0.6 0.5
0.1 0.6 0.6
0.1 0.6 0.7
0.1 0.6 0.8
0.1 0.6 0.9
0.1 0.6 1
0.1 0.6 1.1
0.1 0.6 1.2
0.1 0.6 1.3
0.1 0.6 1.4
0.1 0.6 1.5
0.1 0.6 1.6
0.1 0.6 1.7
0.1 0.6 1.8
0.1 0.6 1.9
0.1 0.6 2
0.1 0.7 0
0.1 0.7 0.1
0.1 0.7 0.2
0.1 0.7 0.3
0.1 0.7 0.4
0.1 0.7 0.5
0.1 0.7 0.6
0.1 0.7 0.7
0.1 0.7 0.8
0.1 0.7 0.9
0.1 0.7 1
0.1 0.7 1.1
0.1 0.7 1.2
0.1 0.7 1.3
0.1 0.7 1.4
0.1 0.7 1.5
0.1 0.7 1.6
0.1 0.7 1.7
0.1 0.7 1.8
0.1 0.7 1.9
0.1 0.7 2
0.1 0.8 0
0.1 0.8 0.1
0.1 0.8 0.2
0.1 0.8 0.3
0.1 0.8 0.4
0.1 0.8 0.5
0.1 0.8 0.6
0.1 0.8 0.7
0.1 0.8 0.8
0.1 0.8 0.9
0.1 0.8 1
0.1 0.8 1.1
0.1 0.8 1.2
0.1 0.8 1.3
0.1 0.8 1.4
0.1 0.8 1.5
0.1 0.8 1.6
0.1 0.8 1.7
0.1 0.8 1.8
0.1 0.8 1.9
0.1 0.8 2
0.1 0.9 0
0.1 0.9 0.1
0.1 0.9 0.2
0.1 0.9 0.3
0.1 0.9 0.4
0.1 0.9 0.5
0.1 0.9 0.6
0.1 0.9 0.7
0.1 0.9 0.8
0.1 0.9 0.9
0.1 0.9 1
0.1 0.9 1.1
0.1 0.9 1.2
0.1 0.9 1.3
0.1 0.9 1.4
0.1 0.9 1.5
0.1 0.9 1.6
0.1 0.9 1.7
0.1 0.9 1.8
0.1 0.9 1.9
0.1 0.9 2
0.1 1 0
0.1 1 0.1
0.1 1 0.2
0.1 1 0.3
0.1 1 0.4
0.1 1 0.5
0.1 1 0.6
0.1 1 0.7
0.1 1 0.8
0.1 1 0.9
0.1 1 1
0.1 1 1.1
0.1 1 1.2
0.1 1 1.3
0.1 1 1.4
0.1 1 1.5
0.1 1 1.6
0.1 1 1.7
0.1 1 1.8
0.1 1 1.9
0.1 1 2
0.1 1.1 0
0.1 1.1 0.1
0.1 1.1 0.2
0.1 1.1 0.3
0.1 1.1 0.4
0.1 1.1 0.5
0.1 1.1 0.6
0.1 1.1 0.7
0.1 1.1 0.8
0.1 1.1 0.9
0.1 1.1 1
0.1 1.1 1.1
0.1 1.1 1.2
0.1 1.1 1.3
0.1 1.1 1.4
0.1 1.1 1.5
0.1 1.1 1.6
0.1 1.1 1.7
0.1 1.1 1.8
0.1 1.1 1.9
0.1 1.1 2
0.1 1.2 0
0.1 1.2 0.1
0.1 1.2 0.2
0.1 1.2 0.3
0.1 1.2 0.4
0.1 1.2 0.5
0.1 1.2 0.6
0.1 1.2 0.7
0.1 1.2 0.8
0.1 1.2 0.9
0.1 1.2 1
0.1 1.2 1.1
0.1 1.2 1.2
0.1 1.2 1.3
0.1 1.2 1.4
0.1 1.2 1.5
0.1 1.2 1.6
0.1 1.2 1.7
0.1 1.2 1.8
0.1 1.2 1.9
0.1 1.2 2
0.1 1.3 0
0.1 1.3 0.1
0.1 1.3 0.2
0.1 1.3 0.3
0.1 1.3 0.4
0.1 1.3 0.5
0.1 1.3 0.6
0.1 1.3 0.7
0.1 1.3 0.8
0.1 1.3 0.9
0.1 1.3 1
0.1 1.3 1.1
0.1 1.3 1.2
0.1 1.3 1.3
0.1 1.3 1.4
0.1 1.3 1.5
0.1 1.3 1.6
0.1 1.3 1.7
0.1 1.3 1.8
0.1 1.3 1.9
0.1 1.3 2
0.1 1.4 0
0.1 1.4 0.1
0.1 1.4 0.2
0.1 1.4 0.3
0.1 1.4 0.4
0.1 1.4 0.5
0.1 1.4 0.6
0.1 1.4 0.7
0.1 1.4 0.8
0.1 1.4 0.9
0.1 1.4 1
0.1 1.4 1.1
0.1 1.4 1.2
0.1 1.4 1.3
0.1 1.4 1.4
0.1 1.4 1.5
0.1 1.4 1.6
0.1 1.4 1.7
0.1 1.4 1.8
0.1 1.4 1.9
0.1 1.4 2
0.1 1.5 0
0.1 1.5 0.1
0.1 1.5 0.2
0.1 1.5 0.3
0.1 1.5 0.4
0.1 1.5 0.5
0.1 1.5 0.6
0.1 1.5 0.7
0.1 1.5 0.8
0.1 1.5 0.9
0.1 1.5 1
0.1 1.5 1.1
0.1 1.5 1.2
0.1 1.5 1.3
0.1 1.5 1.4
0.1 1.5 1.5
0.1 1.5 1.6
0.1 1.5 1.7
0.1 1.5 1.8
0.1 1.5 1.9
0.1 1.5 2
0.1 1.6 0
0.1 1.6 0.1
0.1 1.6 0.2
0.1 1.6 0.3
0.1 1.6 0.4
0.1 1.6 0.5
0.1 1.6 0.6
0.1 1.6 0.7
0.1 1.6 0.8
0.1 1.6 0.9
0.1 1.6 1
0.1 1.6 1.1
0.1 1.6 1.2
0.1 1.6 1.3
0.1 1.6 1.4
0.1 1.6 1.5
0.1 1.6 1.6
0.1 1.6 1.7
0.1 1.6 1.8
0.1 1.6 1.9
0.1 1.6 2
0.1 1.7 0
0.1 1.7 0.1
0.1 1.7 0.2
0.1 1.7 0.3
0.1 1.7 0.4
0.1 1.7 0.5
0.1 1.7 0.6
0.1 1.7 0.7
0.1 1.7 0.8
0.1 1.7 0.9
0.1 1.7 1
0.1 1.7 1.1
0.1 1.7 1.2
0.1 1.7 1.3
0.1 1.7 1.4
0.1 1.7 1.5
0.1 1.7 1.6
0.1 1.7 1.7
0.1 1.7 1.8
0.1 1.7 1.9
0.1 1.7 2
0.1 1.8 0
0.1 1.8 0.1
0.1 1.8 0.2
0.1 1.8 0.3
0.1 1.8 0.4
0.1 1.8 0.5
0.1 1.8 0.6
0.1 1.8 0.7
0.1 1.8 0.8
0.1 1.8 0.9
0.1 1.8 1
0.1 1.8 1.1
0.1 1.8 1.2
0.1 1.8 1.3
0.1 1.8 1.4
0.1 1.8 1.5
0.1 1.8 1.6
0.1 1.8 1.7
0.1 1.8 1.8
0.1 1.8 1.9
0.1 1.8 2
0.1 1.9 0
0.1 1.9 0.1
0.1 1.9 0.2
0.1 1.9 0.3
0.1 1.9 0.4
0.1 1.9 0.5
0.1 1.9 0.6
0.1 1.9 0.7
0.1 1.9 0.8
0.1 1.9 0.9
0.1 1.9 1
0.1 1.9 1.1
0.1 1.9 1.2
0.1 1.9 1.3
0.1 1.9 1.4
0.1 1.9 1.5
0.1 1.9 1.6
0.1 1.9 1.7
0.1 1.9 1.8
0.1 1.9 1.9
0.1 1.9 2
0.1 2 0
0.1 2 0.1
0.1 2 0.2
0.1 2 0.3
0.1 2 0.4
0.1 2 0.5
0.1 2 0.6
0.1 2 0.7
0.1 2 0.8
0.1 2 0.9
0.1 2 1
0.1 2 1.1
0.1 2 1.2
0.1 2 1.3
0.1 2 1.4
0.1 2 1.5
0.1 2 1.6
0.1 2 1.7
0.1 2 1.8
0.1 2 1.9
0.1 2 2
0.2 0 0
0.2 0 0.1
0.2 0 0.2
0.2 0 0.3
0.2 0 0.4
0.2 0 0.5
0.2 0 0.6
0.2 0 0.7
0.2 0 0.8
0.2 0 0.9
0.2 0 1
0.2 0 1.1
0.2 0 1.2
0.2 0 1.3
0.2 0 1.4
0.2 0 1.5
0.2 0 1.6
0.2 0 1.7
0.2 0 1.8
0.2 0 1.9
0.2 0 2
0.2 0.1 0
0.2 0.1 0.1
0.2 0.1 0.2
0.2 0.1 0.3
0.2 0.1 0.4
0.2 0.1 0.5
0.2 0.1 0.6
0.2 0.1 0.7
0.2 0.1 0.8
0.2 0.1 0.9
0.2 0.1 1
0.2 0.1 1.1
0.2 0.1 1.2
0.2 0.1 1.3
0.2 0.1 1.4
0.2 0.1 1.5
0.2 0.1 1.6
0.2 0.1 1.7
0.2 0.1 1.8
0.2 0.1 1.9
0.2 0.1 2
0.2 0.2 0
0.2 0.2 0.1
0.2 0.2 0.2
0.2 0.2 0.3
0.2 0.2 0.4
0.2 0.2 0.5
0.2 0.2 0.6
0.2 0.2 0.7
0.2 0.2 0.8
0.2 0.2 0.9
0.2 0.2 1
0.2 0.2 1.1
0.2 0.2 1.2
0.2 0.2 1.3
0.2 0.2 1.4
0.2 0.2 1.5
0.2 0.2 1.6
0.2 0.2 1.7
0.2 0.2 1.8
0.2 0.2 1.9
[...]
CELL_DATA 8000
SCALARS Phi_sigma_(3D) float 1
LOOKUP_TABLE default
0.0843109
0.0836433
0.0829115
0.0823795
0.0819679
0.0816683
0.0814696
0.0813401
0.0812866
0.0812561
0.0812507
0.081274
0.0813615
0.0815412
0.0817903
0.0820919
0.0824849
0.083021
0.0837373
0.0843891
0.0848649
0.0838874
0.0830179
0.082524
0.0821141
0.0818173
0.0816336
0.081501
0.0814753
0.0814432
0.0814342
0.0814395
0.081514
0.0817068
0.0819652
0.0822468
0.082615
0.0831363
0.0839807
0.0849316
0.0874221
0.0864692
0.0856298
0.0851738
0.0848049
0.0845551
0.0843949
0.0842598
0.0842309
0.0842077
0.084223
0.0842295
0.0842864
0.0844589
0.0847061
0.0849867
0.0853256
0.0857908
0.0865962
0.0875659
0.09219
0.0916635
0.0910891
0.0906924
0.0904017
0.0902148
0.090079
0.0899636
0.0899135
0.089905
0.0899429
0.0899733
0.0900306
0.0901631
0.0903706
0.0906383
0.0909403
0.0913199
0.0918731
0.0924515
0.0976864
0.0974222
0.0970861
0.0968055
0.0965895
0.0964374
0.0963283
0.0962494
0.0962123
0.0962105
0.0962404
0.0962842
0.0963546
0.096472
0.0966394
0.0968499
0.0970932
0.0973808
0.0977202
0.0980067
0.103194
0.103061
0.102871
0.10269
0.102541
0.102429
0.102349
0.102298
0.102276
0.102281
0.102311
0.10236
0.102432
0.102534
0.102669
0.102831
0.103016
0.103218
0.103422
0.103567
0.108523
0.108454
0.108348
0.108237
0.108141
0.108066
0.108014
0.107984
0.107977
0.10799
0.108022
0.108072
0.10814
0.108228
0.108337
0.108462
0.108598
0.108736
0.108862
0.108941
0.113639
0.113603
0.113545
0.113481
0.113424
0.113379
0.113351
0.113339
0.113344
0.113365
0.1134
0.113449
0.113511
0.113587
0.113675
0.113772
0.113872
0.113968
0.114049
0.114096
0.118545
0.118527
0.118496
0.118463
0.118434
0.118413
0.118404
0.118407
0.118422
0.118449
0.118487
0.118535
0.118593
0.118658
0.118731
0.118806
0.118881
0.11895
0.119004
0.119034
0.123239
0.123231
0.123218
0.123205
0.123195
0.123193
0.123198
0.123213
0.123237
0.12327
0.12331
0.123358
0.123411
0.123469
0.123529
0.12359
0.123648
0.123698
0.123736
0.123757
0.127708
0.127706
0.127704
0.127705
0.127709
0.12772
0.127738
0.127762
0.127793
0.127831
0.127873
0.12792
0.12797
0.128022
0.128074
0.128124
0.12817
0.128209
0.128237
0.128252
0.131926
0.131928
0.131934
0.131943
0.131958
0.131979
0.132005
0.132038
0.132075
0.132116
0.132161
0.132207
0.132255
0.132302
0.132348
0.132391
0.132429
0.13246
0.132482
0.132493
0.135855
0.13586
0.135871
0.135887
0.13591
0.135938
0.135971
0.13601
0.136052
0.136096
0.136142
0.136189
0.136235
0.136279
0.136321
0.136358
0.136391
0.136416
0.136435
0.136444
0.139451
0.139458
0.139472
0.139493
0.139521
0.139555
0.139594
0.139637
0.139683
0.139731
0.139779
0.139825
0.13987
0.139912
0.139951
0.139985
0.140013
0.140035
0.140051
0.140059
0.142663
0.142672
0.142689
0.142713
0.142746
0.142784
0.142827
0.142874
0.142923
0.142973
0.143022
0.143069
0.143114
0.143154
0.14319
0.143221
0.143247
0.143267
0.143281
0.143287
0.145441
0.14545
0.145469
0.145497
0.145532
0.145574
0.145621
0.145671
0.145722
0.145774
0.145824
0.145872
0.145915
0.145955
0.145989
0.146019
0.146042
0.14606
0.146073
0.146079
0.147734
0.147745
0.147765
0.147795
0.147832
0.147877
0.147926
0.147979
0.148032
0.148085
0.148136
0.148184
0.148227
0.148266
0.148299
0.148327
0.14835
0.148366
0.148378
0.148383
0.149499
0.14951
0.149532
0.149563
0.149602
0.149648
0.1497
0.149754
0.149809
0.149863
0.149914
0.149962
0.150005
0.150043
0.150076
0.150103
0.150124
0.15014
0.150151
0.150156
0.150699
0.15071
0.150732
0.150764
0.150805
0.150852
0.150905
0.15096
0.151016
0.15107
0.151122
0.15117
0.151213
0.151251
0.151283
0.151309
0.15133
0.151346
0.151356
0.151361
0.151307
0.151318
0.15134
0.151373
0.151414
0.151462
0.151515
0.15157
0.151627
0.151682
0.151734
0.151782
0.151825
0.151862
0.151894
0.15192
0.151941
0.151956
0.151966
0.151971
0.0849362
0.0839733
0.0831119
0.0826192
0.0822122
0.0819196
0.0817369
0.0816025
0.0815743
0.081543
0.0815374
0.0815438
0.0816166
0.0818068
0.0820649
0.0823493
0.0827172
0.0832338
0.0840695
0.085012
0.0843597
0.0819595
0.0806506
0.080445
0.0799649
0.0796223
0.0794908
0.0793012
0.0794191
0.0793465
0.0793185
0.0792497
0.07928
0.0795595
0.0798822
0.080083
0.0803908
0.0807855
0.0820168
0.084309
0.0867086
0.0842844
0.0829353
0.0827511
0.082311
0.0820731
0.0819754
0.0817354
0.0818241
0.0817625
0.0818263
0.0817506
0.0817244
0.0819576
0.0822758
0.0825445
0.0828246
0.083107
0.0843044
0.0868217
0.0925636
0.0917215
0.0909462
0.0905618
0.0902749
0.0901661
0.0900571
0.0898791
0.0898178
0.0898117
0.0899333
0.0899393
0.0899351
0.0900438
0.0902671
0.0906051
0.0908859
0.0911782
0.0918432
0.0929245
0.0985392
0.0982128
0.0978399
0.0975651
0.0973566
0.0972188
0.0971178
0.0970358
0.0970018
0.0970025
0.0970414
0.0970807
0.0971422
0.0972561
0.0974233
0.0976351
0.0978679
0.0981421
0.098509
0.0988775
0.104127
0.103984
0.103791
0.103616
0.103473
0.103367
0.103292
0.103244
0.103226
0.103233
0.103264
0.103312
0.103382
0.103483
0.103615
0.103773
0.10395
0.104147
0.104353
0.10451
0.109441
0.109372
0.109269
0.109163
0.109072
0.109001
0.108953
0.108927
0.108922
0.108936
0.108969
0.109019
0.109086
0.109174
0.109279
0.109401
0.109532
0.109667
0.10979
0.10987
0.114536
0.114502
0.114446
0.114386
0.114332
0.114291
0.114266
0.114257
0.114264
0.114286
0.114322
0.114371
0.114433
0.114508
0.114594
0.114688
0.114786
0.114879
0.114957
0.115004
0.119436
0.119419
0.119391
0.11936
0.119334
0.119316
0.119309
0.119314
0.119331
0.11936
0.119399
0.119447
0.119505
0.11957
0.11964
0.119715
0.119788
0.119854
0.119907
0.119936
0.124142
0.124135
0.124123
0.124112
0.124105
0.124105
0.124113
0.12413
0.124156
0.12419
0.124231
0.124279
0.124332
0.124389
0.124449
0.124509
0.124565
0.124614
0.124651
0.124672
0.128638
0.128637
0.128637
0.128639
0.128646
0.128658
0.128678
0.128704
0.128737
0.128776
0.12882
0.128867
0.128917
0.128969
0.12902
0.12907
0.129115
0.129153
0.12918
0.129195
0.132895
0.132898
0.132905
0.132916
0.132933
0.132956
0.132984
0.133018
0.133057
0.1331
0.133146
0.133193
0.133241
0.133288
0.133334
0.133376
0.133413
0.133444
0.133465
0.133477
0.136872
0.136877
0.136889
0.136907
0.136931
0.136962
0.136997
0.137038
0.137082
0.137128
0.137175
0.137223
0.137269
0.137313
0.137355
0.137392
0.137423
0.137449
0.137466
0.137476
0.140519
0.140527
0.140542
0.140565
0.140595
0.140631
0.140672
0.140718
0.140766
0.140815
0.140864
0.140911
0.140957
0.140999
0.141037
0.141071
0.141099
0.14112
0.141135
0.141143
0.143784
0.143793
0.143811
0.143838
0.143872
0.143913
0.143958
0.144008
0.144059
0.14411
0.144161
0.144209
0.144254
0.144294
0.14433
0.144361
0.144386
0.144406
0.144419
0.144425
0.146611
0.146621
0.146642
0.146671
0.146709
0.146753
0.146802
0.146855
0.146909
0.146962
0.147014
0.147062
0.147107
0.147146
0.14718
0.147209
0.147232
0.14725
0.147262
0.147268
0.148949
0.14896
0.148982
0.149014
0.149054
0.149101
0.149153
0.149208
0.149264
0.149318
0.149371
0.14942
0.149464
0.149503
0.149536
0.149563
0.149585
0.149601
0.149612
0.149618
0.15075
0.150762
0.150784
0.150818
0.15086
0.150909
0.150963
0.151019
0.151077
0.151133
0.151186
0.151235
0.151279
0.151317
0.151349
0.151376
0.151396
0.151412
0.151422
0.151427
0.151975
0.151987
0.152011
0.152045
0.152088
0.152138
0.152193
0.152251
0.15231
0.152366
0.15242
0.152469
0.152513
0.152551
0.152582
0.152608
0.152628
0.152643
0.152653
0.152658
0.152596
0.152608
0.152632
0.152666
0.15271
0.152761
0.152817
0.152875
0.152934
0.152991
0.153045
0.153094
0.153138
0.153175
0.153207
0.153232
0.153252
0.153266
0.153276
0.153281
0.0876231
0.0867344
0.08592
0.0854596
0.0850996
0.0848666
0.0847092
0.0845667
0.0845261
0.0845063
0.0845364
0.0845467
0.0845968
0.0847582
0.0850036
0.0852985
0.0856382
0.086089
0.0868637
0.0878001
0.0869082
0.0847298
0.0833986
0.0831412
0.0827266
0.0825695
0.0824772
0.0821988
0.0822277
0.0821806
0.082323
0.0822557
0.0821928
0.0823749
0.0826862
0.0830431
0.0833318
0.0835743
0.0847003
0.0871573
0.0893994
0.0871465
0.0858856
0.085717
0.0853176
0.0850982
0.0850097
0.0847945
0.084882
0.0848295
0.0848871
0.084819
0.0848002
0.0850227
0.0853209
0.0855661
0.0858208
0.0860869
0.0872147
0.0895495
0.0950879
0.0940727
0.0934301
0.0932018
0.0929082
0.0926328
0.0925125
0.0924605
0.0925213
0.092496
0.0924261
0.0924309
0.09253
0.0927373
0.0929458
0.093059
0.093301
0.0936853
0.0943735
0.0952003
0.100722
0.100383
0.100051
0.0998221
0.0996272
0.0994734
0.0993783
0.0993262
0.0993194
0.0993185
0.0993273
0.0993645
0.0994437
0.0995719
0.0997264
0.09989
0.100099
0.10037
0.100718
0.101035
0.106107
0.10597
0.105796
0.105643
0.105513
0.105413
0.105347
0.10531
0.105301
0.10531
0.105337
0.105385
0.105457
0.105558
0.105681
0.105823
0.105985
0.106169
0.106361
0.106502
0.111292
0.111229
0.111136
0.111043
0.110962
0.110899
0.110858
0.110839
0.110839
0.110857
0.11089
0.11094
0.111007
0.111092
0.111192
0.111305
0.111427
0.111552
0.111666
0.111738
0.116319
0.116288
0.11624
0.116187
0.116141
0.116107
0.116088
0.116084
0.116095
0.11612
0.116157
0.116207
0.116268
0.116341
0.116424
0.116513
0.116604
0.116691
0.116763
0.116806
0.121203
0.121189
0.121165
0.12114
0.121119
0.121107
0.121105
0.121115
0.121135
0.121166
0.121207
0.121256
0.121313
0.121377
0.121445
0.121516
0.121585
0.121648
0.121697
0.121724
0.125935
0.12593
0.125922
0.125915
0.125912
0.125916
0.125929
0.12595
0.125979
0.126015
0.126059
0.126107
0.126161
0.126217
0.126275
0.126333
0.126387
0.126433
0.126468
0.126487
0.13049
0.13049
0.130492
0.130498
0.130508
0.130525
0.130549
0.130579
0.130616
0.130657
0.130703
0.130751
0.130802
0.130853
0.130903
0.130951
0.130995
0.131031
0.131057
0.131071
0.134828
0.134833
0.134842
0.134856
0.134877
0.134904
0.134937
0.134975
0.135017
0.135062
0.13511
0.135159
0.135207
0.135255
0.135299
0.13534
0.135376
0.135405
0.135426
0.135437
0.138903
0.13891
0.138924
0.138945
0.138973
0.139008
0.139048
0.139092
0.139139
0.139189
0.139238
0.139287
0.139335
0.139379
0.13942
0.139456
0.139486
0.139511
0.139528
0.139536
0.142657
0.142666
0.142683
0.14271
0.142744
0.142784
0.14283
0.14288
0.142931
0.142984
0.143035
0.143085
0.143131
0.143173
0.143211
0.143244
0.14327
0.143291
0.143305
0.143313
0.146029
0.14604
0.14606
0.146091
0.146129
0.146175
0.146226
0.146279
0.146335
0.14639
0.146443
0.146493
0.146538
0.146579
0.146615
0.146644
0.146669
0.146687
0.146699
0.146705
0.14896
0.148971
0.148994
0.149028
0.14907
0.149119
0.149174
0.149231
0.149289
0.149347
0.149401
0.149451
0.149497
0.149536
0.14957
0.149598
0.14962
0.149636
0.149647
0.149653
0.151389
0.151401
0.151426
0.151462
0.151507
0.151559
0.151617
0.151677
0.151737
0.151796
0.151852
0.151903
0.151948
0.151986
0.152019
0.152045
0.152066
0.152081
0.15209
0.152095
0.153263
0.153277
0.153303
0.15334
0.153387
0.153442
0.153502
0.153564
0.153626
0.153687
0.153743
0.153794
0.153839
0.153877
0.153908
0.153934
0.153953
0.153967
0.153976
0.15398
0.154541
0.154554
0.154581
0.15462
0.154668
0.154724
0.154786
0.154849
0.154913
0.154974
0.15503
0.155082
0.155126
0.155164
0.155195
0.155219
0.155238
0.155251
0.15526
0.155264
0.155188
0.155202
0.155229
0.155268
0.155318
0.155375
0.155436
0.155501
0.155565
0.155626
0.155683
0.155734
0.155779
0.155816
0.155847
0.155871
0.155889
0.155902
0.15591
0.155914
0.092462
0.0919721
0.0914371
0.0910564
0.0907687
0.0905695
0.0904314
0.0903284
0.090286
0.0902755
0.0902983
0.0903305
0.0903991
0.0905384
0.0907408
0.0909901
0.0912874
0.0916698
0.0921967
0.0927071
0.0929283
0.0921494
0.0914726
0.0911187
0.0908309
0.0906485
0.0905257
0.0904057
0.0903796
0.0903691
0.0904071
0.0904219
0.0904678
0.0906115
0.090826
0.0910778
0.0913555
0.0917101
0.0923546
0.0931857
0.0949754
0.0939575
0.0932395
0.0929772
0.092694
0.0925126
0.09241
0.0922908
0.0923036
0.092286
0.0923178
0.0923177
0.092358
0.0925176
0.0927326
0.0929491
0.0931944
0.0934982
0.0941749
0.0952258
0.0993017
0.0988184
0.0983887
0.0981362
0.0979181
0.0977492
0.0976485
0.0975891
0.0975884
0.0975844
0.0975896
0.0976186
0.0976949
0.097834
0.0980017
0.0981724
0.0983929
0.0986915
0.0991314
0.0995896
0.104122
0.103908
0.103665
0.103475
0.103318
0.103197
0.103119
0.103077
0.103069
0.103075
0.103095
0.103139
0.103214
0.103326
0.103462
0.103614
0.103797
0.10402
0.104279
0.10449
0.109064
0.108964
0.10883
0.108705
0.108599
0.108518
0.108465
0.108438
0.108435
0.108449
0.10848
0.108529
0.108599
0.108693
0.108805
0.108932
0.109075
0.109231
0.109385
0.109492
0.114015
0.113966
0.113893
0.113818
0.113752
0.113703
0.113673
0.113661
0.113668
0.11369
0.113726
0.113776
0.113841
0.113922
0.114014
0.114117
0.114226
0.114335
0.114431
0.114491
0.118939
0.118915
0.118876
0.118835
0.1188
0.118776
0.118765
0.118769
0.118785
0.118814
0.118854
0.118904
0.118965
0.119034
0.119112
0.119193
0.119276
0.119354
0.119417
0.119454
0.123807
0.123797
0.12378
0.123762
0.12375
0.123745
0.123751
0.123767
0.123792
0.123827
0.12387
0.12392
0.123977
0.124038
0.124103
0.12417
0.124233
0.12429
0.124334
0.124359
0.128589
0.128586
0.128583
0.128582
0.128586
0.128597
0.128616
0.128642
0.128676
0.128717
0.128762
0.128812
0.128866
0.128921
0.128977
0.129031
0.129081
0.129124
0.129156
0.129174
0.133241
0.133243
0.133249
0.13326
0.133276
0.1333
0.133329
0.133365
0.133407
0.133452
0.1335
0.13355
0.133601
0.133652
0.133701
0.133747
0.133787
0.133821
0.133845
0.133858
0.137712
0.137718
0.137731
0.13775
0.137776
0.137809
0.137848
0.137892
0.137939
0.137989
0.13804
0.138091
0.13814
0.138187
0.138231
0.13827
0.138304
0.138331
0.13835
0.13836
0.141942
0.141951
0.141968
0.141994
0.142028
0.142069
0.142116
0.142166
0.142219
0.142273
0.142326
0.142377
0.142425
0.14247
0.142509
0.142544
0.142573
0.142595
0.142611
0.142619
0.145864
0.145874
0.145896
0.145928
0.145968
0.146015
0.146068
0.146124
0.146182
0.146239
0.146294
0.146346
0.146394
0.146436
0.146473
0.146504
0.146529
0.146548
0.14656
0.146567
0.149406
0.149419
0.149444
0.149479
0.149525
0.149578
0.149636
0.149697
0.149759
0.149819
0.149876
0.149929
0.149975
0.150016
0.150051
0.150079
0.150101
0.150117
0.150128
0.150133
0.152498
0.152512
0.152539
0.152579
0.152628
0.152686
0.152749
0.152814
0.152879
0.152942
0.153
0.153053
0.1531
0.153139
0.153172
0.153198
0.153218
0.153232
0.153241
0.153246
0.155071
0.155086
0.155115
0.155157
0.15521
0.155271
0.155338
0.155406
0.155474
0.155539
0.155599
0.155652
0.155698
0.155737
0.155768
0.155792
0.15581
0.155823
0.155831
0.155835
0.157062
0.157078
0.157109
0.157153
0.157209
0.157273
0.157341
0.157412
0.157482
0.157549
0.15761
0.157664
0.157709
0.157747
0.157777
0.1578
0.157816
0.157828
0.157835
0.157838
0.158421
0.158438
0.158469
0.158515
0.158573
0.158638
0.158709
0.158782
0.158853
0.15892
0.158982
0.159036
0.159082
0.159119
0.159148
0.15917
0.159185
0.159196
0.159202
0.159206
0.159111
0.159128
0.15916
0.159207
0.159265
0.159332
0.159403
0.159477
0.159549
0.159616
0.159678
0.159732
0.159778
0.159815
0.159844
0.159865
0.15988
0.15989
0.159896
0.159899
0.0979003
0.0976526
0.0973368
0.0970677
0.0968546
0.0966984
0.0965887
0.0965156
0.0964827
0.0964797
0.0965033
0.0965473
0.0966227
0.096743
0.0969069
0.0971079
0.0973461
0.0976299
0.0979531
0.0982114
0.0987344
0.0984266
0.0980786
0.0978155
0.0976085
0.09746
0.0973572
0.0972854
0.0972583
0.0972574
0.0972832
0.0973233
0.0973937
0.0975135
0.0976769
0.0978731
0.0981021
0.0983802
0.0987326
0.0990551
0.100765
0.100429
0.100087
0.0998538
0.0996635
0.0995264
0.0994355
0.0993723
0.0993566
0.0993581
0.0993833
0.0994209
0.0994896
0.0996084
0.0997645
0.0999439
0.100153
0.100409
0.100756
0.101103
0.104142
0.103928
0.103684
0.103493
0.103337
0.10322
0.103143
0.103099
0.103089
0.103096
0.103119
0.103163
0.103236
0.103346
0.103482
0.103637
0.10382
0.104041
0.104299
0.104516
0.108258
0.10814
0.107985
0.107847
0.107731
0.107643
0.107586
0.107556
0.107552
0.107565
0.107595
0.107643
0.107715
0.107811
0.107928
0.108061
0.108212
0.108382
0.108555
0.10868
0.112762
0.112698
0.112606
0.112515
0.112437
0.112378
0.112342
0.112326
0.11233
0.112351
0.112386
0.112436
0.112504
0.112588
0.112687
0.112798
0.112918
0.113043
0.113157
0.11323
0.117476
0.117443
0.117391
0.117337
0.11729
0.117257
0.117239
0.117238
0.117252
0.117279
0.117318
0.117369
0.117432
0.117507
0.117591
0.117681
0.117775
0.117865
0.117942
0.117987
0.122306
0.122289
0.122263
0.122236
0.122214
0.122202
0.122202
0.122214
0.122237
0.12227
0.122313
0.122364
0.122424
0.12249
0.122561
0.122635
0.122707
0.122774
0.122827
0.122857
0.127185
0.127179
0.12717
0.127162
0.12716
0.127165
0.12718
0.127203
0.127235
0.127275
0.127321
0.127372
0.127428
0.127488
0.127548
0.127609
0.127666
0.127716
0.127754
0.127775
0.132057
0.132057
0.13206
0.132066
0.132079
0.132098
0.132125
0.132159
0.1322
0.132245
0.132294
0.132346
0.132399
0.132453
0.132506
0.132556
0.132602
0.13264
0.132669
0.132684
0.136858
0.136863
0.136874
0.136892
0.136916
0.136947
0.136985
0.137029
0.137076
0.137127
0.137179
0.137231
0.137283
0.137332
0.137379
0.137422
0.137459
0.137489
0.137511
0.137522
0.141523
0.141532
0.141549
0.141575
0.141609
0.14165
0.141698
0.141749
0.141804
0.141859
0.141914
0.141967
0.142017
0.142063
0.142105
0.142142
0.142173
0.142198
0.142214
0.142223
0.145977
0.145988
0.146011
0.146044
0.146086
0.146136
0.146191
0.14625
0.14631
0.14637
0.146428
0.146482
0.146531
0.146575
0.146613
0.146645
0.146671
0.146691
0.146704
0.146711
0.150138
0.150152
0.150179
0.150218
0.150267
0.150324
0.150387
0.150452
0.150518
0.150582
0.150642
0.150697
0.150745
0.150787
0.150822
0.150851
0.150873
0.150889
0.150899
0.150905
0.153923
0.153938
0.153969
0.154013
0.154068
0.154132
0.154201
0.154272
0.154342
0.15441
0.154472
0.154528
0.154576
0.154616
0.154649
0.154674
0.154692
0.154706
0.154714
0.154718
0.157244
0.157262
0.157295
0.157344
0.157404
0.157473
0.157547
0.157624
0.157698
0.157769
0.157833
0.15789
0.157937
0.157976
0.158006
0.158029
0.158045
0.158055
0.158062
0.158065
0.160021
0.16004
0.160076
0.160128
0.160193
0.160266
0.160345
0.160425
0.160503
0.160576
0.160642
0.160699
0.160747
0.160784
0.160813
0.160833
0.160846
0.160855
0.16086
0.160862
0.162179
0.162198
0.162237
0.162291
0.162359
0.162436
0.162518
0.162602
0.162682
0.162757
0.162825
0.162882
0.162929
0.162966
0.162992
0.163011
0.163023
0.16303
0.163034
0.163035
0.163655
0.163675
0.163715
0.163772
0.163842
0.163921
0.164006
0.164091
0.164174
0.16425
0.164318
0.164375
0.164422
0.164458
0.164484
0.164501
0.164512
0.164518
0.16452
0.164522
0.164406
0.164427
0.164467
0.164524
0.164596
0.164676
0.164762
0.164848
0.164932
0.165009
0.165077
0.165135
0.165181
0.165217
0.165242
0.165258
0.165268
0.165274
0.165276
0.165277
0.103351
0.103226
0.103045
0.102871
0.102724
0.102612
0.102532
0.102483
0.102463
0.102468
0.102496
0.102545
0.102618
0.102721
0.102854
0.103012
0.103192
0.103389
0.103585
0.10372
0.10426
0.104124
0.10394
0.10377
0.103629
0.103522
0.103448
0.103402
0.103385
0.103392
0.103421
0.103469
0.103541
0.103642
0.103772
0.103925
0.1041
0.104294
0.104493
0.10464
0.106179
0.106044
0.105871
0.105718
0.105591
0.105495
0.10543
0.105391
0.105381
0.105391
0.10542
0.105468
0.105538
0.105637
0.10576
0.105903
0.106065
0.106245
0.106434
0.106578
0.109102
0.109003
0.108869
0.108744
0.108639
0.10856
0.108508
0.10848
0.108477
0.108492
0.108523
0.108572
0.108642
0.108734
0.108846
0.108974
0.109116
0.109271
0.109424
0.109533
0.112778
0.112714
0.112622
0.112532
0.112454
0.112396
0.112359
0.112344
0.112348
0.112368
0.112403
0.112454
0.112521
0.112605
0.112704
0.112815
0.112935
0.113059
0.113173
0.113247
0.116973
0.116935
0.116878
0.116818
0.116768
0.116731
0.116711
0.116708
0.116721
0.116747
0.116786
0.116837
0.116902
0.116978
0.117064
0.117158
0.117255
0.117351
0.117433
0.117482
0.121523
0.121502
0.12147
0.121437
0.12141
0.121393
0.121389
0.121399
0.12142
0.121453
0.121496
0.121548
0.121609
0.121677
0.121752
0.12183
0.121908
0.121981
0.12204
0.122074
0.126314
0.126305
0.126291
0.126278
0.12627
0.126272
0.126283
0.126304
0.126335
0.126374
0.12642
0.126473
0.12653
0.126592
0.126657
0.126722
0.126785
0.12684
0.126883
0.126907
0.131259
0.131258
0.131257
0.13126
0.131269
0.131285
0.13131
0.131343
0.131382
0.131427
0.131477
0.13153
0.131585
0.131642
0.131698
0.131752
0.131802
0.131845
0.131877
0.131894
0.13628
0.136284
0.136293
0.136309
0.136331
0.136361
0.136398
0.136441
0.136489
0.13654
0.136593
0.136647
0.1367
0.136752