# vtk DataFile Version 2.0
Pressure 3D1D coupled problem
ASCII
DATASET UNSTRUCTURED_GRID
POINTS 9261 float
0 0 0
0 0 0.1
0 0 0.2
0 0 0.3
0 0 0.4
0 0 0.5
0 0 0.6
0 0 0.7
0 0 0.8
0 0 0.9
0 0 1
0 0 1.1
0 0 1.2
0 0 1.3
0 0 1.4
0 0 1.5
0 0 1.6
0 0 1.7
0 0 1.8
0 0 1.9
0 0 2
0 0.1 0
0 0.1 0.1
0 0.1 0.2
0 0.1 0.3
0 0.1 0.4
0 0.1 0.5
0 0.1 0.6
0 0.1 0.7
0 0.1 0.8
0 0.1 0.9
0 0.1 1
0 0.1 1.1
0 0.1 1.2
0 0.1 1.3
0 0.1 1.4
0 0.1 1.5
0 0.1 1.6
0 0.1 1.7
0 0.1 1.8
0 0.1 1.9
0 0.1 2
0 0.2 0
0 0.2 0.1
0 0.2 0.2
0 0.2 0.3
0 0.2 0.4
0 0.2 0.5
0 0.2 0.6
0 0.2 0.7
0 0.2 0.8
0 0.2 0.9
0 0.2 1
0 0.2 1.1
0 0.2 1.2
0 0.2 1.3
0 0.2 1.4
0 0.2 1.5
0 0.2 1.6
0 0.2 1.7
0 0.2 1.8
0 0.2 1.9
0 0.2 2
0 0.3 0
0 0.3 0.1
0 0.3 0.2
0 0.3 0.3
0 0.3 0.4
0 0.3 0.5
0 0.3 0.6
0 0.3 0.7
0 0.3 0.8
0 0.3 0.9
0 0.3 1
0 0.3 1.1
0 0.3 1.2
0 0.3 1.3
0 0.3 1.4
0 0.3 1.5
0 0.3 1.6
0 0.3 1.7
0 0.3 1.8
0 0.3 1.9
0 0.3 2
0 0.4 0
0 0.4 0.1
0 0.4 0.2
0 0.4 0.3
0 0.4 0.4
0 0.4 0.5
0 0.4 0.6
0 0.4 0.7
0 0.4 0.8
0 0.4 0.9
0 0.4 1
0 0.4 1.1
0 0.4 1.2
0 0.4 1.3
0 0.4 1.4
0 0.4 1.5
0 0.4 1.6
0 0.4 1.7
0 0.4 1.8
0 0.4 1.9
0 0.4 2
0 0.5 0
0 0.5 0.1
0 0.5 0.2
0 0.5 0.3
0 0.5 0.4
0 0.5 0.5
0 0.5 0.6
0 0.5 0.7
0 0.5 0.8
0 0.5 0.9
0 0.5 1
0 0.5 1.1
0 0.5 1.2
0 0.5 1.3
0 0.5 1.4
0 0.5 1.5
0 0.5 1.6
0 0.5 1.7
0 0.5 1.8
0 0.5 1.9
0 0.5 2
0 0.6 0
0 0.6 0.1
0 0.6 0.2
0 0.6 0.3
0 0.6 0.4
0 0.6 0.5
0 0.6 0.6
0 0.6 0.7
0 0.6 0.8
0 0.6 0.9
0 0.6 1
0 0.6 1.1
0 0.6 1.2
0 0.6 1.3
0 0.6 1.4
0 0.6 1.5
0 0.6 1.6
0 0.6 1.7
0 0.6 1.8
0 0.6 1.9
0 0.6 2
0 0.7 0
0 0.7 0.1
0 0.7 0.2
0 0.7 0.3
0 0.7 0.4
0 0.7 0.5
0 0.7 0.6
0 0.7 0.7
0 0.7 0.8
0 0.7 0.9
0 0.7 1
0 0.7 1.1
0 0.7 1.2
0 0.7 1.3
0 0.7 1.4
0 0.7 1.5
0 0.7 1.6
0 0.7 1.7
0 0.7 1.8
0 0.7 1.9
0 0.7 2
0 0.8 0
0 0.8 0.1
0 0.8 0.2
0 0.8 0.3
0 0.8 0.4
0 0.8 0.5
0 0.8 0.6
0 0.8 0.7
0 0.8 0.8
0 0.8 0.9
0 0.8 1
0 0.8 1.1
0 0.8 1.2
0 0.8 1.3
0 0.8 1.4
0 0.8 1.5
0 0.8 1.6
0 0.8 1.7
0 0.8 1.8
0 0.8 1.9
0 0.8 2
0 0.9 0
0 0.9 0.1
0 0.9 0.2
0 0.9 0.3
0 0.9 0.4
0 0.9 0.5
0 0.9 0.6
0 0.9 0.7
0 0.9 0.8
0 0.9 0.9
0 0.9 1
0 0.9 1.1
0 0.9 1.2
0 0.9 1.3
0 0.9 1.4
0 0.9 1.5
0 0.9 1.6
0 0.9 1.7
0 0.9 1.8
0 0.9 1.9
0 0.9 2
0 1 0
0 1 0.1
0 1 0.2
0 1 0.3
0 1 0.4
0 1 0.5
0 1 0.6
0 1 0.7
0 1 0.8
0 1 0.9
0 1 1
0 1 1.1
0 1 1.2
0 1 1.3
0 1 1.4
0 1 1.5
0 1 1.6
0 1 1.7
0 1 1.8
0 1 1.9
0 1 2
0 1.1 0
0 1.1 0.1
0 1.1 0.2
0 1.1 0.3
0 1.1 0.4
0 1.1 0.5
0 1.1 0.6
0 1.1 0.7
0 1.1 0.8
0 1.1 0.9
0 1.1 1
0 1.1 1.1
0 1.1 1.2
0 1.1 1.3
0 1.1 1.4
0 1.1 1.5
0 1.1 1.6
0 1.1 1.7
0 1.1 1.8
0 1.1 1.9
0 1.1 2
0 1.2 0
0 1.2 0.1
0 1.2 0.2
0 1.2 0.3
0 1.2 0.4
0 1.2 0.5
0 1.2 0.6
0 1.2 0.7
0 1.2 0.8
0 1.2 0.9
0 1.2 1
0 1.2 1.1
0 1.2 1.2
0 1.2 1.3
0 1.2 1.4
0 1.2 1.5
0 1.2 1.6
0 1.2 1.7
0 1.2 1.8
0 1.2 1.9
0 1.2 2
0 1.3 0
0 1.3 0.1
0 1.3 0.2
0 1.3 0.3
0 1.3 0.4
0 1.3 0.5
0 1.3 0.6
0 1.3 0.7
0 1.3 0.8
0 1.3 0.9
0 1.3 1
0 1.3 1.1
0 1.3 1.2
0 1.3 1.3
0 1.3 1.4
0 1.3 1.5
0 1.3 1.6
0 1.3 1.7
0 1.3 1.8
0 1.3 1.9
0 1.3 2
0 1.4 0
0 1.4 0.1
0 1.4 0.2
0 1.4 0.3
0 1.4 0.4
0 1.4 0.5
0 1.4 0.6
0 1.4 0.7
0 1.4 0.8
0 1.4 0.9
0 1.4 1
0 1.4 1.1
0 1.4 1.2
0 1.4 1.3
0 1.4 1.4
0 1.4 1.5
0 1.4 1.6
0 1.4 1.7
0 1.4 1.8
0 1.4 1.9
0 1.4 2
0 1.5 0
0 1.5 0.1
0 1.5 0.2
0 1.5 0.3
0 1.5 0.4
0 1.5 0.5
0 1.5 0.6
0 1.5 0.7
0 1.5 0.8
0 1.5 0.9
0 1.5 1
0 1.5 1.1
0 1.5 1.2
0 1.5 1.3
0 1.5 1.4
0 1.5 1.5
0 1.5 1.6
0 1.5 1.7
0 1.5 1.8
0 1.5 1.9
0 1.5 2
0 1.6 0
0 1.6 0.1
0 1.6 0.2
0 1.6 0.3
0 1.6 0.4
0 1.6 0.5
0 1.6 0.6
0 1.6 0.7
0 1.6 0.8
0 1.6 0.9
0 1.6 1
0 1.6 1.1
0 1.6 1.2
0 1.6 1.3
0 1.6 1.4
0 1.6 1.5
0 1.6 1.6
0 1.6 1.7
0 1.6 1.8
0 1.6 1.9
0 1.6 2
0 1.7 0
0 1.7 0.1
0 1.7 0.2
0 1.7 0.3
0 1.7 0.4
0 1.7 0.5
0 1.7 0.6
0 1.7 0.7
0 1.7 0.8
0 1.7 0.9
0 1.7 1
0 1.7 1.1
0 1.7 1.2
0 1.7 1.3
0 1.7 1.4
0 1.7 1.5
0 1.7 1.6
0 1.7 1.7
0 1.7 1.8
0 1.7 1.9
0 1.7 2
0 1.8 0
0 1.8 0.1
0 1.8 0.2
0 1.8 0.3
0 1.8 0.4
0 1.8 0.5
0 1.8 0.6
0 1.8 0.7
0 1.8 0.8
0 1.8 0.9
0 1.8 1
0 1.8 1.1
0 1.8 1.2
0 1.8 1.3
0 1.8 1.4
0 1.8 1.5
0 1.8 1.6
0 1.8 1.7
0 1.8 1.8
0 1.8 1.9
0 1.8 2
0 1.9 0
0 1.9 0.1
0 1.9 0.2
0 1.9 0.3
0 1.9 0.4
0 1.9 0.5
0 1.9 0.6
0 1.9 0.7
0 1.9 0.8
0 1.9 0.9
0 1.9 1
0 1.9 1.1
0 1.9 1.2
0 1.9 1.3
0 1.9 1.4
0 1.9 1.5
0 1.9 1.6
0 1.9 1.7
0 1.9 1.8
0 1.9 1.9
0 1.9 2
0 2 0
0 2 0.1
0 2 0.2
0 2 0.3
0 2 0.4
0 2 0.5
0 2 0.6
0 2 0.7
0 2 0.8
0 2 0.9
0 2 1
0 2 1.1
0 2 1.2
0 2 1.3
0 2 1.4
0 2 1.5
0 2 1.6
0 2 1.7
0 2 1.8
0 2 1.9
0 2 2
0.1 0 0
0.1 0 0.1
0.1 0 0.2
0.1 0 0.3
0.1 0 0.4
0.1 0 0.5
0.1 0 0.6
0.1 0 0.7
0.1 0 0.8
0.1 0 0.9
0.1 0 1
0.1 0 1.1
0.1 0 1.2
0.1 0 1.3
0.1 0 1.4
0.1 0 1.5
0.1 0 1.6
0.1 0 1.7
0.1 0 1.8
0.1 0 1.9
0.1 0 2
0.1 0.1 0
0.1 0.1 0.1
0.1 0.1 0.2
0.1 0.1 0.3
0.1 0.1 0.4
0.1 0.1 0.5
0.1 0.1 0.6
0.1 0.1 0.7
0.1 0.1 0.8
0.1 0.1 0.9
0.1 0.1 1
0.1 0.1 1.1
0.1 0.1 1.2
0.1 0.1 1.3
0.1 0.1 1.4
0.1 0.1 1.5
0.1 0.1 1.6
0.1 0.1 1.7
0.1 0.1 1.8
0.1 0.1 1.9
0.1 0.1 2
0.1 0.2 0
0.1 0.2 0.1
0.1 0.2 0.2
0.1 0.2 0.3
0.1 0.2 0.4
0.1 0.2 0.5
0.1 0.2 0.6
0.1 0.2 0.7
0.1 0.2 0.8
0.1 0.2 0.9
0.1 0.2 1
0.1 0.2 1.1
0.1 0.2 1.2
0.1 0.2 1.3
0.1 0.2 1.4
0.1 0.2 1.5
0.1 0.2 1.6
0.1 0.2 1.7
0.1 0.2 1.8
0.1 0.2 1.9
0.1 0.2 2
0.1 0.3 0
0.1 0.3 0.1
0.1 0.3 0.2
0.1 0.3 0.3
0.1 0.3 0.4
0.1 0.3 0.5
0.1 0.3 0.6
0.1 0.3 0.7
0.1 0.3 0.8
0.1 0.3 0.9
0.1 0.3 1
0.1 0.3 1.1
0.1 0.3 1.2
0.1 0.3 1.3
0.1 0.3 1.4
0.1 0.3 1.5
0.1 0.3 1.6
0.1 0.3 1.7
0.1 0.3 1.8
0.1 0.3 1.9
0.1 0.3 2
0.1 0.4 0
0.1 0.4 0.1
0.1 0.4 0.2
0.1 0.4 0.3
0.1 0.4 0.4
0.1 0.4 0.5
0.1 0.4 0.6
0.1 0.4 0.7
0.1 0.4 0.8
0.1 0.4 0.9
0.1 0.4 1
0.1 0.4 1.1
0.1 0.4 1.2
0.1 0.4 1.3
0.1 0.4 1.4
0.1 0.4 1.5
0.1 0.4 1.6
0.1 0.4 1.7
0.1 0.4 1.8
0.1 0.4 1.9
0.1 0.4 2
0.1 0.5 0
0.1 0.5 0.1
0.1 0.5 0.2
0.1 0.5 0.3
0.1 0.5 0.4
0.1 0.5 0.5
0.1 0.5 0.6
0.1 0.5 0.7
0.1 0.5 0.8
0.1 0.5 0.9
0.1 0.5 1
0.1 0.5 1.1
0.1 0.5 1.2
0.1 0.5 1.3
0.1 0.5 1.4
0.1 0.5 1.5
0.1 0.5 1.6
0.1 0.5 1.7
0.1 0.5 1.8
0.1 0.5 1.9
0.1 0.5 2
0.1 0.6 0
0.1 0.6 0.1
0.1 0.6 0.2
0.1 0.6 0.3
0.1 0.6 0.4
0.1 0.6 0.5
0.1 0.6 0.6
0.1 0.6 0.7
0.1 0.6 0.8
0.1 0.6 0.9
0.1 0.6 1
0.1 0.6 1.1
0.1 0.6 1.2
0.1 0.6 1.3
0.1 0.6 1.4
0.1 0.6 1.5
0.1 0.6 1.6
0.1 0.6 1.7
0.1 0.6 1.8
0.1 0.6 1.9
0.1 0.6 2
0.1 0.7 0
0.1 0.7 0.1
0.1 0.7 0.2
0.1 0.7 0.3
0.1 0.7 0.4
0.1 0.7 0.5
0.1 0.7 0.6
0.1 0.7 0.7
0.1 0.7 0.8
0.1 0.7 0.9
0.1 0.7 1
0.1 0.7 1.1
0.1 0.7 1.2
0.1 0.7 1.3
0.1 0.7 1.4
0.1 0.7 1.5
0.1 0.7 1.6
0.1 0.7 1.7
0.1 0.7 1.8
0.1 0.7 1.9
0.1 0.7 2
0.1 0.8 0
0.1 0.8 0.1
0.1 0.8 0.2
0.1 0.8 0.3
0.1 0.8 0.4
0.1 0.8 0.5
0.1 0.8 0.6
0.1 0.8 0.7
0.1 0.8 0.8
0.1 0.8 0.9
0.1 0.8 1
0.1 0.8 1.1
0.1 0.8 1.2
0.1 0.8 1.3
0.1 0.8 1.4
0.1 0.8 1.5
0.1 0.8 1.6
0.1 0.8 1.7
0.1 0.8 1.8
0.1 0.8 1.9
0.1 0.8 2
0.1 0.9 0
0.1 0.9 0.1
0.1 0.9 0.2
0.1 0.9 0.3
0.1 0.9 0.4
0.1 0.9 0.5
0.1 0.9 0.6
0.1 0.9 0.7
0.1 0.9 0.8
0.1 0.9 0.9
0.1 0.9 1
0.1 0.9 1.1
0.1 0.9 1.2
0.1 0.9 1.3
0.1 0.9 1.4
0.1 0.9 1.5
0.1 0.9 1.6
0.1 0.9 1.7
0.1 0.9 1.8
0.1 0.9 1.9
0.1 0.9 2
0.1 1 0
0.1 1 0.1
0.1 1 0.2
0.1 1 0.3
0.1 1 0.4
0.1 1 0.5
0.1 1 0.6
0.1 1 0.7
0.1 1 0.8
0.1 1 0.9
0.1 1 1
0.1 1 1.1
0.1 1 1.2
0.1 1 1.3
0.1 1 1.4
0.1 1 1.5
0.1 1 1.6
0.1 1 1.7
0.1 1 1.8
0.1 1 1.9
0.1 1 2
0.1 1.1 0
0.1 1.1 0.1
0.1 1.1 0.2
0.1 1.1 0.3
0.1 1.1 0.4
0.1 1.1 0.5
0.1 1.1 0.6
0.1 1.1 0.7
0.1 1.1 0.8
0.1 1.1 0.9
0.1 1.1 1
0.1 1.1 1.1
0.1 1.1 1.2
0.1 1.1 1.3
0.1 1.1 1.4
0.1 1.1 1.5
0.1 1.1 1.6
0.1 1.1 1.7
0.1 1.1 1.8
0.1 1.1 1.9
0.1 1.1 2
0.1 1.2 0
0.1 1.2 0.1
0.1 1.2 0.2
0.1 1.2 0.3
0.1 1.2 0.4
0.1 1.2 0.5
0.1 1.2 0.6
0.1 1.2 0.7
0.1 1.2 0.8
0.1 1.2 0.9
0.1 1.2 1
0.1 1.2 1.1
0.1 1.2 1.2
0.1 1.2 1.3
0.1 1.2 1.4
0.1 1.2 1.5
0.1 1.2 1.6
0.1 1.2 1.7
0.1 1.2 1.8
0.1 1.2 1.9
0.1 1.2 2
0.1 1.3 0
0.1 1.3 0.1
0.1 1.3 0.2
0.1 1.3 0.3
0.1 1.3 0.4
0.1 1.3 0.5
0.1 1.3 0.6
0.1 1.3 0.7
0.1 1.3 0.8
0.1 1.3 0.9
0.1 1.3 1
0.1 1.3 1.1
0.1 1.3 1.2
0.1 1.3 1.3
0.1 1.3 1.4
0.1 1.3 1.5
0.1 1.3 1.6
0.1 1.3 1.7
0.1 1.3 1.8
0.1 1.3 1.9
0.1 1.3 2
0.1 1.4 0
0.1 1.4 0.1
0.1 1.4 0.2
0.1 1.4 0.3
0.1 1.4 0.4
0.1 1.4 0.5
0.1 1.4 0.6
0.1 1.4 0.7
0.1 1.4 0.8
0.1 1.4 0.9
0.1 1.4 1
0.1 1.4 1.1
0.1 1.4 1.2
0.1 1.4 1.3
0.1 1.4 1.4
0.1 1.4 1.5
0.1 1.4 1.6
0.1 1.4 1.7
0.1 1.4 1.8
0.1 1.4 1.9
0.1 1.4 2
0.1 1.5 0
0.1 1.5 0.1
0.1 1.5 0.2
0.1 1.5 0.3
0.1 1.5 0.4
0.1 1.5 0.5
0.1 1.5 0.6
0.1 1.5 0.7
0.1 1.5 0.8
0.1 1.5 0.9
0.1 1.5 1
0.1 1.5 1.1
0.1 1.5 1.2
0.1 1.5 1.3
0.1 1.5 1.4
0.1 1.5 1.5
0.1 1.5 1.6
0.1 1.5 1.7
0.1 1.5 1.8
0.1 1.5 1.9
0.1 1.5 2
0.1 1.6 0
0.1 1.6 0.1
0.1 1.6 0.2
0.1 1.6 0.3
0.1 1.6 0.4
0.1 1.6 0.5
0.1 1.6 0.6
0.1 1.6 0.7
0.1 1.6 0.8
0.1 1.6 0.9
0.1 1.6 1
0.1 1.6 1.1
0.1 1.6 1.2
0.1 1.6 1.3
0.1 1.6 1.4
0.1 1.6 1.5
0.1 1.6 1.6
0.1 1.6 1.7
0.1 1.6 1.8
0.1 1.6 1.9
0.1 1.6 2
0.1 1.7 0
0.1 1.7 0.1
0.1 1.7 0.2
0.1 1.7 0.3
0.1 1.7 0.4
0.1 1.7 0.5
0.1 1.7 0.6
0.1 1.7 0.7
0.1 1.7 0.8
0.1 1.7 0.9
0.1 1.7 1
0.1 1.7 1.1
0.1 1.7 1.2
0.1 1.7 1.3
0.1 1.7 1.4
0.1 1.7 1.5
0.1 1.7 1.6
0.1 1.7 1.7
0.1 1.7 1.8
0.1 1.7 1.9
0.1 1.7 2
0.1 1.8 0
0.1 1.8 0.1
0.1 1.8 0.2
0.1 1.8 0.3
0.1 1.8 0.4
0.1 1.8 0.5
0.1 1.8 0.6
0.1 1.8 0.7
0.1 1.8 0.8
0.1 1.8 0.9
0.1 1.8 1
0.1 1.8 1.1
0.1 1.8 1.2
0.1 1.8 1.3
0.1 1.8 1.4
0.1 1.8 1.5
0.1 1.8 1.6
0.1 1.8 1.7
0.1 1.8 1.8
0.1 1.8 1.9
0.1 1.8 2
0.1 1.9 0
0.1 1.9 0.1
0.1 1.9 0.2
0.1 1.9 0.3
0.1 1.9 0.4
0.1 1.9 0.5
0.1 1.9 0.6
0.1 1.9 0.7
0.1 1.9 0.8
0.1 1.9 0.9
0.1 1.9 1
0.1 1.9 1.1
0.1 1.9 1.2
0.1 1.9 1.3
0.1 1.9 1.4
0.1 1.9 1.5
0.1 1.9 1.6
0.1 1.9 1.7
0.1 1.9 1.8
0.1 1.9 1.9
0.1 1.9 2
0.1 2 0
0.1 2 0.1
0.1 2 0.2
0.1 2 0.3
0.1 2 0.4
0.1 2 0.5
0.1 2 0.6
0.1 2 0.7
0.1 2 0.8
0.1 2 0.9
0.1 2 1
0.1 2 1.1
0.1 2 1.2
0.1 2 1.3
0.1 2 1.4
0.1 2 1.5
0.1 2 1.6
0.1 2 1.7
0.1 2 1.8
0.1 2 1.9
0.1 2 2
0.2 0 0
0.2 0 0.1
0.2 0 0.2
0.2 0 0.3
0.2 0 0.4
0.2 0 0.5
0.2 0 0.6
0.2 0 0.7
0.2 0 0.8
0.2 0 0.9
0.2 0 1
0.2 0 1.1
0.2 0 1.2
0.2 0 1.3
0.2 0 1.4
0.2 0 1.5
0.2 0 1.6
0.2 0 1.7
0.2 0 1.8
0.2 0 1.9
0.2 0 2
0.2 0.1 0
0.2 0.1 0.1
0.2 0.1 0.2
0.2 0.1 0.3
0.2 0.1 0.4
0.2 0.1 0.5
0.2 0.1 0.6
0.2 0.1 0.7
0.2 0.1 0.8
0.2 0.1 0.9
0.2 0.1 1
0.2 0.1 1.1
0.2 0.1 1.2
0.2 0.1 1.3
0.2 0.1 1.4
0.2 0.1 1.5
0.2 0.1 1.6
0.2 0.1 1.7
0.2 0.1 1.8
0.2 0.1 1.9
0.2 0.1 2
0.2 0.2 0
0.2 0.2 0.1
0.2 0.2 0.2
0.2 0.2 0.3
0.2 0.2 0.4
0.2 0.2 0.5
0.2 0.2 0.6
0.2 0.2 0.7
0.2 0.2 0.8
0.2 0.2 0.9
0.2 0.2 1
0.2 0.2 1.1
0.2 0.2 1.2
0.2 0.2 1.3
0.2 0.2 1.4
0.2 0.2 1.5
0.2 0.2 1.6
0.2 0.2 1.7
0.2 0.2 1.8
0.2 0.2 1.9
[...]
CELL_DATA 8000
SCALARS Phi_sigma_(3D) float 1
LOOKUP_TABLE default
0.0943667
0.0936326
0.0928272
0.0922412
0.0917874
0.0914569
0.0912375
0.0910944
0.0910354
0.091002
0.0909965
0.0910231
0.0911206
0.0913197
0.0915954
0.091929
0.092363
0.0929542
0.0937427
0.0944598
0.0949438
0.0938694
0.092913
0.0923689
0.0919171
0.0915897
0.0913868
0.0912405
0.091212
0.0911768
0.0911674
0.0911742
0.0912574
0.0914709
0.0917567
0.0920682
0.0924749
0.0930497
0.0939789
0.0950242
0.0976902
0.0966431
0.0957201
0.0952177
0.0948111
0.0945353
0.0943584
0.0942093
0.0941773
0.094152
0.0941692
0.0941772
0.0942412
0.0944323
0.0947057
0.095016
0.0953904
0.0959034
0.0967895
0.0978552
0.102833
0.102254
0.101623
0.101185
0.100865
0.100658
0.100508
0.100381
0.100325
0.100316
0.100358
0.100392
0.100457
0.100604
0.100834
0.10113
0.101463
0.101882
0.102491
0.103127
0.108746
0.108455
0.108085
0.107775
0.107537
0.107369
0.107248
0.10716
0.107119
0.107117
0.107151
0.1072
0.107278
0.107409
0.107594
0.107827
0.108097
0.108414
0.108788
0.109104
0.114641
0.114494
0.114285
0.114085
0.11392
0.113795
0.113707
0.11365
0.113625
0.113632
0.113664
0.113719
0.113799
0.113913
0.114063
0.114243
0.114447
0.114671
0.114896
0.115056
0.120312
0.120236
0.120118
0.119996
0.119889
0.119805
0.119747
0.119714
0.119705
0.11972
0.119756
0.119811
0.119887
0.119985
0.120106
0.120244
0.120395
0.120549
0.120688
0.120776
0.125724
0.125685
0.12562
0.125549
0.125484
0.125435
0.125402
0.125389
0.125394
0.125416
0.125455
0.12551
0.125579
0.125664
0.125762
0.12587
0.125981
0.126088
0.126177
0.12623
0.130885
0.130864
0.13083
0.130793
0.130759
0.130735
0.130724
0.130727
0.130743
0.130773
0.130814
0.130868
0.130932
0.131005
0.131086
0.13117
0.131254
0.131331
0.131391
0.131425
0.135796
0.135787
0.135772
0.135756
0.135745
0.13574
0.135746
0.135761
0.135787
0.135823
0.135867
0.135919
0.135979
0.136043
0.136111
0.136179
0.136244
0.1363
0.136343
0.136366
0.14045
0.140447
0.140445
0.140444
0.140448
0.140458
0.140476
0.140502
0.140536
0.140576
0.140623
0.140675
0.14073
0.140788
0.140846
0.140903
0.140955
0.140998
0.14103
0.141047
0.144823
0.144826
0.144831
0.144841
0.144856
0.144877
0.144904
0.144939
0.144979
0.145023
0.145072
0.145124
0.145177
0.14523
0.145281
0.145329
0.145372
0.145407
0.145432
0.145445
0.148884
0.148889
0.1489
0.148916
0.148939
0.148969
0.149004
0.149045
0.14909
0.149138
0.149189
0.14924
0.149292
0.149341
0.149388
0.14943
0.149467
0.149496
0.149517
0.149528
0.152588
0.152595
0.15261
0.152632
0.152661
0.152697
0.152738
0.152784
0.152833
0.152884
0.152936
0.152988
0.153038
0.153085
0.153128
0.153167
0.153199
0.153225
0.153242
0.153252
0.155889
0.155898
0.155915
0.155941
0.155975
0.156015
0.156061
0.156111
0.156163
0.156217
0.15627
0.156322
0.156372
0.156417
0.156458
0.156493
0.156523
0.156546
0.156561
0.156569
0.158737
0.158747
0.158767
0.158796
0.158833
0.158877
0.158926
0.158979
0.159034
0.15909
0.159144
0.159197
0.159245
0.15929
0.159329
0.159362
0.15939
0.159411
0.159425
0.159432
0.161086
0.161097
0.161118
0.161149
0.161188
0.161235
0.161287
0.161342
0.161399
0.161457
0.161512
0.161564
0.161613
0.161656
0.161694
0.161726
0.161752
0.161772
0.161785
0.161792
0.162891
0.162902
0.162924
0.162957
0.162998
0.163047
0.1631
0.163158
0.163216
0.163275
0.163331
0.163383
0.163431
0.163474
0.163511
0.163542
0.163567
0.163586
0.163599
0.163605
0.164117
0.164129
0.164151
0.164185
0.164227
0.164277
0.164332
0.16439
0.16445
0.164509
0.164565
0.164618
0.164666
0.164708
0.164745
0.164775
0.164799
0.164818
0.16483
0.164836
0.164737
0.164749
0.164772
0.164806
0.164849
0.164899
0.164955
0.165014
0.165074
0.165133
0.16519
0.165243
0.165291
0.165333
0.165369
0.165399
0.165423
0.165441
0.165453
0.165459
0.0950223
0.0939638
0.0930163
0.0924736
0.092025
0.0917021
0.0915004
0.0913521
0.0913208
0.0912865
0.0912808
0.0912888
0.0913702
0.0915808
0.0918663
0.0921809
0.0925873
0.0931569
0.0940765
0.0951127
0.094357
0.0917203
0.0902817
0.0900543
0.0895257
0.0891482
0.0890027
0.0887939
0.0889231
0.0888435
0.0888133
0.0887386
0.0887733
0.0890818
0.0894382
0.0896608
0.090001
0.0904366
0.0917906
0.0943085
0.0968734
0.0942117
0.0927295
0.0925257
0.092041
0.0917786
0.0916702
0.0914062
0.0915032
0.0914357
0.0915062
0.0914241
0.0913967
0.0916543
0.0920056
0.0923027
0.0926124
0.0929247
0.0942408
0.0970048
0.103206
0.102281
0.101429
0.101006
0.100689
0.100568
0.100448
0.100252
0.100184
0.100177
0.100311
0.100319
0.100316
0.100437
0.100684
0.101057
0.101367
0.10169
0.102422
0.103609
0.10964
0.109281
0.108871
0.108568
0.108337
0.108185
0.108073
0.107982
0.107944
0.107945
0.107988
0.108032
0.108101
0.108228
0.108413
0.108648
0.108905
0.109208
0.109612
0.110018
0.115618
0.11546
0.115248
0.115054
0.114896
0.114778
0.114695
0.114642
0.114621
0.114629
0.114663
0.114716
0.114795
0.114908
0.115054
0.115229
0.115426
0.115643
0.115871
0.116044
0.121267
0.121191
0.121076
0.120959
0.120857
0.120779
0.120725
0.120695
0.120689
0.120705
0.120742
0.120797
0.120872
0.120969
0.121087
0.121222
0.121368
0.121517
0.121653
0.121742
0.126649
0.126611
0.126549
0.126482
0.126422
0.126376
0.126347
0.126336
0.126343
0.126367
0.126407
0.126462
0.126531
0.126615
0.126711
0.126815
0.126924
0.127028
0.127114
0.127166
0.131795
0.131776
0.131744
0.13171
0.131679
0.131659
0.13165
0.131655
0.131673
0.131704
0.131747
0.131801
0.131865
0.131937
0.132016
0.132099
0.132181
0.132255
0.132314
0.132347
0.136711
0.136703
0.13669
0.136677
0.136668
0.136666
0.136674
0.136691
0.136719
0.136756
0.136801
0.136854
0.136913
0.136977
0.137044
0.137111
0.137175
0.13723
0.137271
0.137294
0.141387
0.141385
0.141384
0.141385
0.141391
0.141404
0.141424
0.141452
0.141487
0.141529
0.141577
0.14163
0.141685
0.141743
0.141801
0.141856
0.141907
0.14195
0.141981
0.141998
0.145795
0.145798
0.145804
0.145816
0.145832
0.145856
0.145886
0.145922
0.145964
0.14601
0.14606
0.146112
0.146165
0.146219
0.14627
0.146317
0.14636
0.146394
0.146419
0.146431
0.149898
0.149904
0.149916
0.149934
0.149959
0.149991
0.150028
0.150071
0.150118
0.150168
0.15022
0.150272
0.150324
0.150374
0.15042
0.150462
0.150498
0.150527
0.150548
0.150558
0.15365
0.153658
0.153674
0.153698
0.153729
0.153767
0.15381
0.153858
0.15391
0.153963
0.154016
0.154069
0.154119
0.154167
0.15421
0.154248
0.15428
0.154305
0.154322
0.154331
0.157001
0.15701
0.157029
0.157057
0.157092
0.157135
0.157183
0.157236
0.15729
0.157346
0.157401
0.157454
0.157503
0.157549
0.15759
0.157625
0.157654
0.157677
0.157692
0.1577
0.159897
0.159907
0.159928
0.159959
0.159998
0.160045
0.160097
0.160152
0.16021
0.160267
0.160323
0.160377
0.160426
0.16047
0.160509
0.160542
0.160569
0.16059
0.160604
0.160611
0.162288
0.162299
0.162321
0.162354
0.162396
0.162446
0.1625
0.162558
0.162618
0.162677
0.162734
0.162788
0.162837
0.16288
0.162918
0.16295
0.162975
0.162994
0.163007
0.163014
0.164127
0.164139
0.164163
0.164197
0.164241
0.164292
0.164349
0.164409
0.16447
0.164531
0.164588
0.164642
0.164691
0.164734
0.164771
0.164801
0.164826
0.164844
0.164856
0.164862
0.165377
0.16539
0.165414
0.16545
0.165495
0.165547
0.165605
0.165666
0.165729
0.16579
0.165848
0.165902
0.16595
0.165993
0.166029
0.166059
0.166083
0.1661
0.166112
0.166118
0.16601
0.166023
0.166048
0.166084
0.166129
0.166183
0.166241
0.166303
0.166366
0.166427
0.166485
0.166539
0.166588
0.16663
0.166666
0.166696
0.166719
0.166736
0.166748
0.166754
0.0979112
0.0969346
0.0960389
0.0955318
0.0951348
0.0948777
0.0947037
0.0945465
0.0945016
0.09448
0.0945135
0.0945258
0.0945821
0.0947611
0.0950326
0.0953586
0.0957339
0.0962311
0.0970835
0.0981127
0.0970926
0.0947007
0.0932381
0.0929539
0.0924973
0.0923235
0.0922211
0.0919148
0.0919463
0.0918948
0.0920515
0.0919786
0.0919109
0.0921125
0.0924561
0.09285
0.0931693
0.0934377
0.0946756
0.0973733
0.0997608
0.0972884
0.0959035
0.0957166
0.0952769
0.0950349
0.0949367
0.0946999
0.0947954
0.094738
0.0948017
0.094728
0.0947086
0.0949544
0.0952836
0.0955549
0.0958366
0.0961309
0.0973702
0.0999327
0.105903
0.104789
0.104082
0.10383
0.103507
0.103203
0.10307
0.103012
0.103078
0.103051
0.102975
0.102981
0.103091
0.10332
0.103551
0.103677
0.103945
0.104369
0.105125
0.106033
0.111953
0.111581
0.111215
0.110962
0.110747
0.110577
0.110471
0.110413
0.110406
0.110405
0.110415
0.110456
0.110545
0.110687
0.110858
0.11104
0.111271
0.11157
0.111954
0.112302
0.117697
0.117547
0.117355
0.117185
0.117041
0.116931
0.116857
0.116815
0.116805
0.116816
0.116845
0.116898
0.116979
0.117091
0.117228
0.117385
0.117566
0.117769
0.11798
0.118136
0.123192
0.123123
0.12302
0.122917
0.122826
0.122756
0.12271
0.122688
0.122688
0.122707
0.122744
0.122799
0.122874
0.122968
0.12308
0.123206
0.123341
0.12348
0.123606
0.123687
0.128487
0.128452
0.128398
0.128339
0.128288
0.128249
0.128226
0.128221
0.128233
0.12826
0.128301
0.128356
0.128425
0.128506
0.128598
0.128697
0.128799
0.128896
0.128976
0.129024
0.1336
0.133584
0.133557
0.133528
0.133504
0.133489
0.133486
0.133496
0.133518
0.133551
0.133596
0.133651
0.133714
0.133785
0.133862
0.133941
0.134018
0.134088
0.134143
0.134174
0.138529
0.138523
0.138513
0.138504
0.1385
0.138503
0.138515
0.138537
0.138568
0.138608
0.138655
0.138709
0.138769
0.138832
0.138897
0.138961
0.139022
0.139075
0.139114
0.139135
0.143251
0.143251
0.143253
0.143257
0.143268
0.143285
0.143309
0.143341
0.14338
0.143425
0.143475
0.143528
0.143584
0.143642
0.143698
0.143752
0.143801
0.143842
0.143872
0.143888
0.147732
0.147736
0.147745
0.147759
0.14778
0.147808
0.147842
0.147882
0.147927
0.147977
0.148029
0.148083
0.148137
0.14819
0.14824
0.148287
0.148328
0.148361
0.148384
0.148397
0.151925
0.151932
0.151946
0.151968
0.151997
0.152033
0.152074
0.152121
0.152172
0.152225
0.152279
0.152333
0.152386
0.152436
0.152482
0.152523
0.152558
0.152586
0.152605
0.152615
0.155777
0.155786
0.155804
0.155831
0.155866
0.155909
0.155957
0.156009
0.156064
0.156121
0.156177
0.156231
0.156283
0.15633
0.156373
0.15641
0.156442
0.156466
0.156482
0.156491
0.159229
0.15924
0.159261
0.159292
0.159332
0.15938
0.159433
0.15949
0.159549
0.159608
0.159666
0.159721
0.159772
0.159818
0.159858
0.159892
0.15992
0.159942
0.159956
0.159964
0.162223
0.162235
0.162258
0.162293
0.162337
0.162388
0.162446
0.162506
0.162568
0.16263
0.162689
0.162744
0.162795
0.162839
0.162878
0.16291
0.162936
0.162956
0.162969
0.162975
0.164701
0.164714
0.164739
0.164776
0.164823
0.164878
0.164938
0.165002
0.165066
0.165129
0.165189
0.165245
0.165295
0.165339
0.165376
0.165407
0.165431
0.165449
0.165461
0.165467
0.166611
0.166625
0.166652
0.16669
0.166739
0.166796
0.166859
0.166925
0.166991
0.167055
0.167116
0.167172
0.167222
0.167265
0.167302
0.167331
0.167354
0.167371
0.167382
0.167388
0.167912
0.167926
0.167953
0.167993
0.168044
0.168102
0.168166
0.168233
0.168301
0.168366
0.168428
0.168484
0.168533
0.168576
0.168612
0.16864
0.168663
0.168679
0.16869
0.168695
0.168571
0.168585
0.168613
0.168653
0.168705
0.168764
0.168829
0.168896
0.168964
0.16903
0.169092
0.169148
0.169198
0.16924
0.169275
0.169304
0.169326
0.169341
0.169352
0.169357
0.103132
0.102594
0.102005
0.101585
0.101268
0.101048
0.100895
0.100781
0.100735
0.100723
0.100749
0.100785
0.100862
0.101016
0.10124
0.101516
0.101845
0.102267
0.102847
0.103408
0.103607
0.102751
0.102007
0.101617
0.1013
0.101098
0.100962
0.10083
0.100801
0.100789
0.100831
0.100849
0.1009
0.10106
0.101297
0.101576
0.101883
0.102274
0.102983
0.103896
0.10578
0.104663
0.103874
0.103585
0.103273
0.103072
0.102958
0.102827
0.102841
0.102821
0.102857
0.102858
0.102903
0.10308
0.103318
0.103557
0.103829
0.104164
0.104908
0.106062
0.110418
0.109887
0.109414
0.109135
0.108895
0.108708
0.108596
0.10853
0.108529
0.108525
0.108531
0.108564
0.108649
0.108803
0.108989
0.109178
0.109422
0.109752
0.110236
0.11074
0.115561
0.115326
0.115059
0.114848
0.114674
0.11454
0.114453
0.114406
0.114397
0.114404
0.114427
0.114475
0.11456
0.114684
0.114835
0.115004
0.115207
0.115453
0.115738
0.11597
0.120803
0.120694
0.120545
0.120407
0.120289
0.120199
0.120139
0.120109
0.120106
0.120121
0.120155
0.120209
0.120288
0.120392
0.120517
0.120658
0.120817
0.12099
0.12116
0.121278
0.126024
0.12597
0.125888
0.125804
0.125731
0.125676
0.125641
0.125628
0.125634
0.125658
0.125698
0.125754
0.125827
0.125916
0.126019
0.126133
0.126255
0.126376
0.126482
0.126549
0.131184
0.131157
0.131114
0.131067
0.131028
0.131
0.130987
0.130989
0.131006
0.131037
0.131081
0.131137
0.131205
0.131283
0.131369
0.13146
0.131553
0.131639
0.13171
0.131751
0.136258
0.136245
0.136226
0.136205
0.13619
0.136184
0.136188
0.136204
0.136232
0.13627
0.136317
0.136372
0.136435
0.136504
0.136577
0.136651
0.136723
0.136786
0.136836
0.136863
0.141216
0.141213
0.141208
0.141205
0.141208
0.141219
0.141238
0.141266
0.141302
0.141346
0.141396
0.141451
0.14151
0.141572
0.141635
0.141696
0.141753
0.141801
0.141838
0.141857
0.14602
0.146022
0.146027
0.146037
0.146054
0.146077
0.146108
0.146146
0.14619
0.146239
0.146292
0.146347
0.146404
0.14646
0.146516
0.146567
0.146614
0.146652
0.146679
0.146694
0.150619
0.150625
0.150637
0.150657
0.150684
0.150717
0.150758
0.150804
0.150855
0.150908
0.150964
0.15102
0.151074
0.151127
0.151177
0.151222
0.15126
0.151292
0.151313
0.151325
0.154955
0.154964
0.154982
0.155009
0.155044
0.155086
0.155135
0.155188
0.155244
0.155302
0.15536
0.155416
0.15547
0.15552
0.155565
0.155605
0.155638
0.155664
0.155682
0.155692
0.158965
0.158976
0.158998
0.159031
0.159072
0.159121
0.159177
0.159236
0.159297
0.159359
0.159419
0.159476
0.159528
0.159576
0.159618
0.159654
0.159683
0.159706
0.159721
0.159729
0.162579
0.162592
0.162617
0.162654
0.162701
0.162756
0.162817
0.162881
0.162947
0.163011
0.163073
0.163131
0.163183
0.163229
0.163269
0.163301
0.163328
0.163347
0.16336
0.163367
0.165727
0.165741
0.165769
0.16581
0.165861
0.165921
0.165986
0.166055
0.166124
0.166191
0.166255
0.166313
0.166365
0.166409
0.166447
0.166478
0.166502
0.166519
0.166531
0.166536
0.168342
0.168358
0.168388
0.168431
0.168486
0.16855
0.168619
0.168691
0.168763
0.168832
0.168897
0.168955
0.169007
0.169051
0.169087
0.169116
0.169138
0.169153
0.169164
0.169169
0.170365
0.170381
0.170413
0.170459
0.170516
0.170582
0.170654
0.170728
0.170802
0.170873
0.170939
0.170998
0.17105
0.171093
0.171128
0.171155
0.171175
0.17119
0.171199
0.171204
0.171745
0.171761
0.171794
0.171841
0.1719
0.171968
0.172042
0.172118
0.172194
0.172266
0.172332
0.172391
0.172442
0.172485
0.172519
0.172545
0.172565
0.172579
0.172587
0.172592
0.172445
0.172462
0.172495
0.172543
0.172603
0.172672
0.172746
0.172823
0.172899
0.172972
0.173038
0.173098
0.173149
0.173191
0.173225
0.173251
0.17327
0.173283
0.173291
0.173296
0.108981
0.108709
0.108361
0.108064
0.107829
0.107656
0.107534
0.107453
0.107417
0.107414
0.10744
0.107489
0.107573
0.107707
0.107889
0.108111
0.108375
0.108688
0.109045
0.109329
0.109855
0.109517
0.109133
0.108843
0.108615
0.10845
0.108336
0.108257
0.108227
0.108226
0.108255
0.108299
0.108378
0.108511
0.108692
0.10891
0.109163
0.10947
0.109858
0.110213
0.112001
0.111631
0.111255
0.110998
0.110788
0.110636
0.110535
0.110465
0.110447
0.110449
0.110477
0.110519
0.110596
0.110728
0.110901
0.1111
0.111331
0.111614
0.111996
0.112378
0.115584
0.115348
0.11508
0.114868
0.114696
0.114566
0.11448
0.114431
0.11442
0.114427
0.114454
0.114502
0.114584
0.114706
0.114857
0.115029
0.115232
0.115476
0.115761
0.115999
0.119938
0.119807
0.119637
0.119483
0.119355
0.119257
0.119193
0.119159
0.119154
0.119169
0.119202
0.119255
0.119335
0.119443
0.119572
0.11972
0.119888
0.120076
0.120267
0.120405
0.124678
0.124608
0.124506
0.124405
0.124318
0.124252
0.12421
0.124192
0.124196
0.124218
0.124257
0.124313
0.124388
0.124482
0.124593
0.124716
0.12485
0.124988
0.125114
0.125195
0.129614
0.129577
0.129519
0.129458
0.129405
0.129367
0.129347
0.129344
0.129359
0.129388
0.129431
0.129488
0.129558
0.129641
0.129735
0.129836
0.12994
0.130041
0.130126
0.130177
0.134643
0.134625
0.134595
0.134564
0.134538
0.134524
0.134522
0.134533
0.134558
0.134594
0.134641
0.134698
0.134764
0.134838
0.134917
0.135
0.135081
0.135156
0.135215
0.135248
0.139699
0.139692
0.139681
0.139671
0.139666
0.13967
0.139684
0.139709
0.139743
0.139786
0.139836
0.139893
0.139955
0.140021
0.14009
0.140158
0.140222
0.140279
0.140321
0.140345
0.144723
0.144723
0.144725
0.14473
0.144742
0.144761
0.144789
0.144825
0.144868
0.144916
0.14497
0.145027
0.145087
0.145147
0.145207
0.145264
0.145316
0.145359
0.145391
0.145408
0.149656
0.149661
0.149672
0.149689
0.149713
0.149745
0.149784
0.14983
0.149881
0.149935
0.149992
0.150049
0.150107
0.150162
0.150215
0.150264
0.150307
0.150342
0.150367
0.15038
0.154431
0.15444
0.154457
0.154484
0.154518
0.154561
0.15461
0.154664
0.154722
0.154781
0.154841
0.154899
0.154955
0.155008
0.155056
0.155098
0.155134
0.155162
0.155182
0.155192
0.158977
0.158988
0.159011
0.159045
0.159088
0.159139
0.159197
0.159259
0.159323
0.159387
0.159449
0.159509
0.159564
0.159613
0.159657
0.159695
0.159725
0.159749
0.159765
0.159773
0.163213
0.163227
0.163254
0.163294
0.163345
0.163404
0.163469
0.163537
0.163607
0.163675
0.16374
0.163801
0.163855
0.163902
0.163943
0.163977
0.164003
0.164023
0.164036
0.164043
0.167057
0.167073
0.167104
0.167149
0.167206
0.167272
0.167343
0.167418
0.167493
0.167565
0.167632
0.167693
0.167747
0.167793
0.167831
0.167861
0.167884
0.167901
0.167912
0.167917
0.170425
0.170443
0.170478
0.170527
0.170589
0.17066
0.170738
0.170817
0.170896
0.170971
0.171041
0.171103
0.171156
0.1712
0.171236
0.171263
0.171284
0.171298
0.171307
0.171311
0.173238
0.173256
0.173294
0.173347
0.173413
0.173489
0.173571
0.173654
0.173737
0.173815
0.173886
0.173948
0.174001
0.174044
0.174078
0.174103
0.174121
0.174134
0.174141
0.174145
0.17542
0.17544
0.175479
0.175535
0.175605
0.175684
0.175769
0.175856
0.175941
0.176021
0.176093
0.176156
0.176209
0.176251
0.176284
0.176307
0.176323
0.176334
0.17634
0.176343
0.176913
0.176934
0.176974
0.177032
0.177104
0.177186
0.177273
0.177362
0.177449
0.17753
0.177603
0.177666
0.177719
0.17776
0.177792
0.177814
0.177829
0.177838
0.177844
0.177846
0.177672
0.177693
0.177734
0.177793
0.177866
0.177949
0.178037
0.178128
0.178215
0.178297
0.17837
0.178434
0.178486
0.178527
0.178558
0.178579
0.178594
0.178602
0.178607
0.17861
0.114815
0.114676
0.114477
0.114284
0.114122
0.113997
0.113909
0.113854
0.113832
0.113838
0.113869
0.113923
0.114005
0.114119
0.114266
0.114442
0.114641
0.11486
0.115076
0.115225
0.115765
0.115615
0.115412
0.115224
0.115068
0.11495
0.114867
0.114816
0.114797
0.114805
0.114837
0.11489
0.11497
0.115083
0.115227
0.115398
0.115591
0.115805
0.116025
0.116187
0.117777
0.117629
0.117438
0.117268
0.117127
0.117021
0.116948
0.116905
0.116894
0.116905
0.116938
0.11699
0.117069
0.117179
0.117316
0.117474
0.117654
0.117853
0.118062
0.118221
0.120846
0.120737
0.120588
0.12045
0.120334
0.120246
0.120187
0.120156
0.120152
0.120168
0.120203
0.120257
0.120335
0.120438
0.120562
0.120704
0.120862
0.121034
0.121204
0.121323
0.124696
0.124626
0.124524
0.124423
0.124336
0.124271
0.12423
0.124212
0.124216
0.124238
0.124276
0.124332
0.124407
0.124501
0.124612
0.124735
0.124868
0.125006
0.125132
0.125214
0.129072
0.129031
0.128966
0.1289
0.128843
0.128801
0.128778
0.128773
0.128786
0.128815
0.128858
0.128915
0.128987
0.129071
0.129168
0.129272
0.129381
0.129488
0.129578
0.129634
0.133797
0.133775
0.133738
0.1337
0.133669
0.133649
0.133643
0.133652
0.133675
0.133711
0.133758
0.133815
0.133883
0.133959
0.134043
0.13413
0.134218
0.134299
0.134365
0.134403
0.138751
0.13874
0.138723
0.138708
0.138698
0.138697
0.138708
0.13873
0.138762
0.138804
0.138855
0.138913
0.138977
0.139047
0.139119
0.139192
0.139263
0.139325
0.139373
0.1394
0.14384
0.143838
0.143836
0.143837
0.143845
0.143861
0.143886
0.14392
0.143962
0.144011
0.144065
0.144123
0.144185
0.144248
0.144312
0.144373
0.14443
0.144479
0.144515
0.144534
0.148988
0.148992
0.149
0.149015
0.149037
0.149067
0.149105
0.14915
0.149201
0.149256
0.149313
0.149373
0.149432
0.149491
0.149547
0.149599
0.149646
0.149684
0.149712
0.149727
0.154115
0.154123
0.15414
0.154165
0.1542
0.154242
0.154292
0.154347
0.154406
0.154467
0.154528
0.154588
0.154646
0.154701
0.154751
0.154796
0.154835
0.154866
0.154887
0.154898