# vtk DataFile Version 2.0
Pressure 3D1D coupled problem
ASCII
DATASET UNSTRUCTURED_GRID
POINTS 9261 float
0 0 0
0 0 0.1
0 0 0.2
0 0 0.3
0 0 0.4
0 0 0.5
0 0 0.6
0 0 0.7
0 0 0.8
0 0 0.9
0 0 1
0 0 1.1
0 0 1.2
0 0 1.3
0 0 1.4
0 0 1.5
0 0 1.6
0 0 1.7
0 0 1.8
0 0 1.9
0 0 2
0 0.1 0
0 0.1 0.1
0 0.1 0.2
0 0.1 0.3
0 0.1 0.4
0 0.1 0.5
0 0.1 0.6
0 0.1 0.7
0 0.1 0.8
0 0.1 0.9
0 0.1 1
0 0.1 1.1
0 0.1 1.2
0 0.1 1.3
0 0.1 1.4
0 0.1 1.5
0 0.1 1.6
0 0.1 1.7
0 0.1 1.8
0 0.1 1.9
0 0.1 2
0 0.2 0
0 0.2 0.1
0 0.2 0.2
0 0.2 0.3
0 0.2 0.4
0 0.2 0.5
0 0.2 0.6
0 0.2 0.7
0 0.2 0.8
0 0.2 0.9
0 0.2 1
0 0.2 1.1
0 0.2 1.2
0 0.2 1.3
0 0.2 1.4
0 0.2 1.5
0 0.2 1.6
0 0.2 1.7
0 0.2 1.8
0 0.2 1.9
0 0.2 2
0 0.3 0
0 0.3 0.1
0 0.3 0.2
0 0.3 0.3
0 0.3 0.4
0 0.3 0.5
0 0.3 0.6
0 0.3 0.7
0 0.3 0.8
0 0.3 0.9
0 0.3 1
0 0.3 1.1
0 0.3 1.2
0 0.3 1.3
0 0.3 1.4
0 0.3 1.5
0 0.3 1.6
0 0.3 1.7
0 0.3 1.8
0 0.3 1.9
0 0.3 2
0 0.4 0
0 0.4 0.1
0 0.4 0.2
0 0.4 0.3
0 0.4 0.4
0 0.4 0.5
0 0.4 0.6
0 0.4 0.7
0 0.4 0.8
0 0.4 0.9
0 0.4 1
0 0.4 1.1
0 0.4 1.2
0 0.4 1.3
0 0.4 1.4
0 0.4 1.5
0 0.4 1.6
0 0.4 1.7
0 0.4 1.8
0 0.4 1.9
0 0.4 2
0 0.5 0
0 0.5 0.1
0 0.5 0.2
0 0.5 0.3
0 0.5 0.4
0 0.5 0.5
0 0.5 0.6
0 0.5 0.7
0 0.5 0.8
0 0.5 0.9
0 0.5 1
0 0.5 1.1
0 0.5 1.2
0 0.5 1.3
0 0.5 1.4
0 0.5 1.5
0 0.5 1.6
0 0.5 1.7
0 0.5 1.8
0 0.5 1.9
0 0.5 2
0 0.6 0
0 0.6 0.1
0 0.6 0.2
0 0.6 0.3
0 0.6 0.4
0 0.6 0.5
0 0.6 0.6
0 0.6 0.7
0 0.6 0.8
0 0.6 0.9
0 0.6 1
0 0.6 1.1
0 0.6 1.2
0 0.6 1.3
0 0.6 1.4
0 0.6 1.5
0 0.6 1.6
0 0.6 1.7
0 0.6 1.8
0 0.6 1.9
0 0.6 2
0 0.7 0
0 0.7 0.1
0 0.7 0.2
0 0.7 0.3
0 0.7 0.4
0 0.7 0.5
0 0.7 0.6
0 0.7 0.7
0 0.7 0.8
0 0.7 0.9
0 0.7 1
0 0.7 1.1
0 0.7 1.2
0 0.7 1.3
0 0.7 1.4
0 0.7 1.5
0 0.7 1.6
0 0.7 1.7
0 0.7 1.8
0 0.7 1.9
0 0.7 2
0 0.8 0
0 0.8 0.1
0 0.8 0.2
0 0.8 0.3
0 0.8 0.4
0 0.8 0.5
0 0.8 0.6
0 0.8 0.7
0 0.8 0.8
0 0.8 0.9
0 0.8 1
0 0.8 1.1
0 0.8 1.2
0 0.8 1.3
0 0.8 1.4
0 0.8 1.5
0 0.8 1.6
0 0.8 1.7
0 0.8 1.8
0 0.8 1.9
0 0.8 2
0 0.9 0
0 0.9 0.1
0 0.9 0.2
0 0.9 0.3
0 0.9 0.4
0 0.9 0.5
0 0.9 0.6
0 0.9 0.7
0 0.9 0.8
0 0.9 0.9
0 0.9 1
0 0.9 1.1
0 0.9 1.2
0 0.9 1.3
0 0.9 1.4
0 0.9 1.5
0 0.9 1.6
0 0.9 1.7
0 0.9 1.8
0 0.9 1.9
0 0.9 2
0 1 0
0 1 0.1
0 1 0.2
0 1 0.3
0 1 0.4
0 1 0.5
0 1 0.6
0 1 0.7
0 1 0.8
0 1 0.9
0 1 1
0 1 1.1
0 1 1.2
0 1 1.3
0 1 1.4
0 1 1.5
0 1 1.6
0 1 1.7
0 1 1.8
0 1 1.9
0 1 2
0 1.1 0
0 1.1 0.1
0 1.1 0.2
0 1.1 0.3
0 1.1 0.4
0 1.1 0.5
0 1.1 0.6
0 1.1 0.7
0 1.1 0.8
0 1.1 0.9
0 1.1 1
0 1.1 1.1
0 1.1 1.2
0 1.1 1.3
0 1.1 1.4
0 1.1 1.5
0 1.1 1.6
0 1.1 1.7
0 1.1 1.8
0 1.1 1.9
0 1.1 2
0 1.2 0
0 1.2 0.1
0 1.2 0.2
0 1.2 0.3
0 1.2 0.4
0 1.2 0.5
0 1.2 0.6
0 1.2 0.7
0 1.2 0.8
0 1.2 0.9
0 1.2 1
0 1.2 1.1
0 1.2 1.2
0 1.2 1.3
0 1.2 1.4
0 1.2 1.5
0 1.2 1.6
0 1.2 1.7
0 1.2 1.8
0 1.2 1.9
0 1.2 2
0 1.3 0
0 1.3 0.1
0 1.3 0.2
0 1.3 0.3
0 1.3 0.4
0 1.3 0.5
0 1.3 0.6
0 1.3 0.7
0 1.3 0.8
0 1.3 0.9
0 1.3 1
0 1.3 1.1
0 1.3 1.2
0 1.3 1.3
0 1.3 1.4
0 1.3 1.5
0 1.3 1.6
0 1.3 1.7
0 1.3 1.8
0 1.3 1.9
0 1.3 2
0 1.4 0
0 1.4 0.1
0 1.4 0.2
0 1.4 0.3
0 1.4 0.4
0 1.4 0.5
0 1.4 0.6
0 1.4 0.7
0 1.4 0.8
0 1.4 0.9
0 1.4 1
0 1.4 1.1
0 1.4 1.2
0 1.4 1.3
0 1.4 1.4
0 1.4 1.5
0 1.4 1.6
0 1.4 1.7
0 1.4 1.8
0 1.4 1.9
0 1.4 2
0 1.5 0
0 1.5 0.1
0 1.5 0.2
0 1.5 0.3
0 1.5 0.4
0 1.5 0.5
0 1.5 0.6
0 1.5 0.7
0 1.5 0.8
0 1.5 0.9
0 1.5 1
0 1.5 1.1
0 1.5 1.2
0 1.5 1.3
0 1.5 1.4
0 1.5 1.5
0 1.5 1.6
0 1.5 1.7
0 1.5 1.8
0 1.5 1.9
0 1.5 2
0 1.6 0
0 1.6 0.1
0 1.6 0.2
0 1.6 0.3
0 1.6 0.4
0 1.6 0.5
0 1.6 0.6
0 1.6 0.7
0 1.6 0.8
0 1.6 0.9
0 1.6 1
0 1.6 1.1
0 1.6 1.2
0 1.6 1.3
0 1.6 1.4
0 1.6 1.5
0 1.6 1.6
0 1.6 1.7
0 1.6 1.8
0 1.6 1.9
0 1.6 2
0 1.7 0
0 1.7 0.1
0 1.7 0.2
0 1.7 0.3
0 1.7 0.4
0 1.7 0.5
0 1.7 0.6
0 1.7 0.7
0 1.7 0.8
0 1.7 0.9
0 1.7 1
0 1.7 1.1
0 1.7 1.2
0 1.7 1.3
0 1.7 1.4
0 1.7 1.5
0 1.7 1.6
0 1.7 1.7
0 1.7 1.8
0 1.7 1.9
0 1.7 2
0 1.8 0
0 1.8 0.1
0 1.8 0.2
0 1.8 0.3
0 1.8 0.4
0 1.8 0.5
0 1.8 0.6
0 1.8 0.7
0 1.8 0.8
0 1.8 0.9
0 1.8 1
0 1.8 1.1
0 1.8 1.2
0 1.8 1.3
0 1.8 1.4
0 1.8 1.5
0 1.8 1.6
0 1.8 1.7
0 1.8 1.8
0 1.8 1.9
0 1.8 2
0 1.9 0
0 1.9 0.1
0 1.9 0.2
0 1.9 0.3
0 1.9 0.4
0 1.9 0.5
0 1.9 0.6
0 1.9 0.7
0 1.9 0.8
0 1.9 0.9
0 1.9 1
0 1.9 1.1
0 1.9 1.2
0 1.9 1.3
0 1.9 1.4
0 1.9 1.5
0 1.9 1.6
0 1.9 1.7
0 1.9 1.8
0 1.9 1.9
0 1.9 2
0 2 0
0 2 0.1
0 2 0.2
0 2 0.3
0 2 0.4
0 2 0.5
0 2 0.6
0 2 0.7
0 2 0.8
0 2 0.9
0 2 1
0 2 1.1
0 2 1.2
0 2 1.3
0 2 1.4
0 2 1.5
0 2 1.6
0 2 1.7
0 2 1.8
0 2 1.9
0 2 2
0.1 0 0
0.1 0 0.1
0.1 0 0.2
0.1 0 0.3
0.1 0 0.4
0.1 0 0.5
0.1 0 0.6
0.1 0 0.7
0.1 0 0.8
0.1 0 0.9
0.1 0 1
0.1 0 1.1
0.1 0 1.2
0.1 0 1.3
0.1 0 1.4
0.1 0 1.5
0.1 0 1.6
0.1 0 1.7
0.1 0 1.8
0.1 0 1.9
0.1 0 2
0.1 0.1 0
0.1 0.1 0.1
0.1 0.1 0.2
0.1 0.1 0.3
0.1 0.1 0.4
0.1 0.1 0.5
0.1 0.1 0.6
0.1 0.1 0.7
0.1 0.1 0.8
0.1 0.1 0.9
0.1 0.1 1
0.1 0.1 1.1
0.1 0.1 1.2
0.1 0.1 1.3
0.1 0.1 1.4
0.1 0.1 1.5
0.1 0.1 1.6
0.1 0.1 1.7
0.1 0.1 1.8
0.1 0.1 1.9
0.1 0.1 2
0.1 0.2 0
0.1 0.2 0.1
0.1 0.2 0.2
0.1 0.2 0.3
0.1 0.2 0.4
0.1 0.2 0.5
0.1 0.2 0.6
0.1 0.2 0.7
0.1 0.2 0.8
0.1 0.2 0.9
0.1 0.2 1
0.1 0.2 1.1
0.1 0.2 1.2
0.1 0.2 1.3
0.1 0.2 1.4
0.1 0.2 1.5
0.1 0.2 1.6
0.1 0.2 1.7
0.1 0.2 1.8
0.1 0.2 1.9
0.1 0.2 2
0.1 0.3 0
0.1 0.3 0.1
0.1 0.3 0.2
0.1 0.3 0.3
0.1 0.3 0.4
0.1 0.3 0.5
0.1 0.3 0.6
0.1 0.3 0.7
0.1 0.3 0.8
0.1 0.3 0.9
0.1 0.3 1
0.1 0.3 1.1
0.1 0.3 1.2
0.1 0.3 1.3
0.1 0.3 1.4
0.1 0.3 1.5
0.1 0.3 1.6
0.1 0.3 1.7
0.1 0.3 1.8
0.1 0.3 1.9
0.1 0.3 2
0.1 0.4 0
0.1 0.4 0.1
0.1 0.4 0.2
0.1 0.4 0.3
0.1 0.4 0.4
0.1 0.4 0.5
0.1 0.4 0.6
0.1 0.4 0.7
0.1 0.4 0.8
0.1 0.4 0.9
0.1 0.4 1
0.1 0.4 1.1
0.1 0.4 1.2
0.1 0.4 1.3
0.1 0.4 1.4
0.1 0.4 1.5
0.1 0.4 1.6
0.1 0.4 1.7
0.1 0.4 1.8
0.1 0.4 1.9
0.1 0.4 2
0.1 0.5 0
0.1 0.5 0.1
0.1 0.5 0.2
0.1 0.5 0.3
0.1 0.5 0.4
0.1 0.5 0.5
0.1 0.5 0.6
0.1 0.5 0.7
0.1 0.5 0.8
0.1 0.5 0.9
0.1 0.5 1
0.1 0.5 1.1
0.1 0.5 1.2
0.1 0.5 1.3
0.1 0.5 1.4
0.1 0.5 1.5
0.1 0.5 1.6
0.1 0.5 1.7
0.1 0.5 1.8
0.1 0.5 1.9
0.1 0.5 2
0.1 0.6 0
0.1 0.6 0.1
0.1 0.6 0.2
0.1 0.6 0.3
0.1 0.6 0.4
0.1 0.6 0.5
0.1 0.6 0.6
0.1 0.6 0.7
0.1 0.6 0.8
0.1 0.6 0.9
0.1 0.6 1
0.1 0.6 1.1
0.1 0.6 1.2
0.1 0.6 1.3
0.1 0.6 1.4
0.1 0.6 1.5
0.1 0.6 1.6
0.1 0.6 1.7
0.1 0.6 1.8
0.1 0.6 1.9
0.1 0.6 2
0.1 0.7 0
0.1 0.7 0.1
0.1 0.7 0.2
0.1 0.7 0.3
0.1 0.7 0.4
0.1 0.7 0.5
0.1 0.7 0.6
0.1 0.7 0.7
0.1 0.7 0.8
0.1 0.7 0.9
0.1 0.7 1
0.1 0.7 1.1
0.1 0.7 1.2
0.1 0.7 1.3
0.1 0.7 1.4
0.1 0.7 1.5
0.1 0.7 1.6
0.1 0.7 1.7
0.1 0.7 1.8
0.1 0.7 1.9
0.1 0.7 2
0.1 0.8 0
0.1 0.8 0.1
0.1 0.8 0.2
0.1 0.8 0.3
0.1 0.8 0.4
0.1 0.8 0.5
0.1 0.8 0.6
0.1 0.8 0.7
0.1 0.8 0.8
0.1 0.8 0.9
0.1 0.8 1
0.1 0.8 1.1
0.1 0.8 1.2
0.1 0.8 1.3
0.1 0.8 1.4
0.1 0.8 1.5
0.1 0.8 1.6
0.1 0.8 1.7
0.1 0.8 1.8
0.1 0.8 1.9
0.1 0.8 2
0.1 0.9 0
0.1 0.9 0.1
0.1 0.9 0.2
0.1 0.9 0.3
0.1 0.9 0.4
0.1 0.9 0.5
0.1 0.9 0.6
0.1 0.9 0.7
0.1 0.9 0.8
0.1 0.9 0.9
0.1 0.9 1
0.1 0.9 1.1
0.1 0.9 1.2
0.1 0.9 1.3
0.1 0.9 1.4
0.1 0.9 1.5
0.1 0.9 1.6
0.1 0.9 1.7
0.1 0.9 1.8
0.1 0.9 1.9
0.1 0.9 2
0.1 1 0
0.1 1 0.1
0.1 1 0.2
0.1 1 0.3
0.1 1 0.4
0.1 1 0.5
0.1 1 0.6
0.1 1 0.7
0.1 1 0.8
0.1 1 0.9
0.1 1 1
0.1 1 1.1
0.1 1 1.2
0.1 1 1.3
0.1 1 1.4
0.1 1 1.5
0.1 1 1.6
0.1 1 1.7
0.1 1 1.8
0.1 1 1.9
0.1 1 2
0.1 1.1 0
0.1 1.1 0.1
0.1 1.1 0.2
0.1 1.1 0.3
0.1 1.1 0.4
0.1 1.1 0.5
0.1 1.1 0.6
0.1 1.1 0.7
0.1 1.1 0.8
0.1 1.1 0.9
0.1 1.1 1
0.1 1.1 1.1
0.1 1.1 1.2
0.1 1.1 1.3
0.1 1.1 1.4
0.1 1.1 1.5
0.1 1.1 1.6
0.1 1.1 1.7
0.1 1.1 1.8
0.1 1.1 1.9
0.1 1.1 2
0.1 1.2 0
0.1 1.2 0.1
0.1 1.2 0.2
0.1 1.2 0.3
0.1 1.2 0.4
0.1 1.2 0.5
0.1 1.2 0.6
0.1 1.2 0.7
0.1 1.2 0.8
0.1 1.2 0.9
0.1 1.2 1
0.1 1.2 1.1
0.1 1.2 1.2
0.1 1.2 1.3
0.1 1.2 1.4
0.1 1.2 1.5
0.1 1.2 1.6
0.1 1.2 1.7
0.1 1.2 1.8
0.1 1.2 1.9
0.1 1.2 2
0.1 1.3 0
0.1 1.3 0.1
0.1 1.3 0.2
0.1 1.3 0.3
0.1 1.3 0.4
0.1 1.3 0.5
0.1 1.3 0.6
0.1 1.3 0.7
0.1 1.3 0.8
0.1 1.3 0.9
0.1 1.3 1
0.1 1.3 1.1
0.1 1.3 1.2
0.1 1.3 1.3
0.1 1.3 1.4
0.1 1.3 1.5
0.1 1.3 1.6
0.1 1.3 1.7
0.1 1.3 1.8
0.1 1.3 1.9
0.1 1.3 2
0.1 1.4 0
0.1 1.4 0.1
0.1 1.4 0.2
0.1 1.4 0.3
0.1 1.4 0.4
0.1 1.4 0.5
0.1 1.4 0.6
0.1 1.4 0.7
0.1 1.4 0.8
0.1 1.4 0.9
0.1 1.4 1
0.1 1.4 1.1
0.1 1.4 1.2
0.1 1.4 1.3
0.1 1.4 1.4
0.1 1.4 1.5
0.1 1.4 1.6
0.1 1.4 1.7
0.1 1.4 1.8
0.1 1.4 1.9
0.1 1.4 2
0.1 1.5 0
0.1 1.5 0.1
0.1 1.5 0.2
0.1 1.5 0.3
0.1 1.5 0.4
0.1 1.5 0.5
0.1 1.5 0.6
0.1 1.5 0.7
0.1 1.5 0.8
0.1 1.5 0.9
0.1 1.5 1
0.1 1.5 1.1
0.1 1.5 1.2
0.1 1.5 1.3
0.1 1.5 1.4
0.1 1.5 1.5
0.1 1.5 1.6
0.1 1.5 1.7
0.1 1.5 1.8
0.1 1.5 1.9
0.1 1.5 2
0.1 1.6 0
0.1 1.6 0.1
0.1 1.6 0.2
0.1 1.6 0.3
0.1 1.6 0.4
0.1 1.6 0.5
0.1 1.6 0.6
0.1 1.6 0.7
0.1 1.6 0.8
0.1 1.6 0.9
0.1 1.6 1
0.1 1.6 1.1
0.1 1.6 1.2
0.1 1.6 1.3
0.1 1.6 1.4
0.1 1.6 1.5
0.1 1.6 1.6
0.1 1.6 1.7
0.1 1.6 1.8
0.1 1.6 1.9
0.1 1.6 2
0.1 1.7 0
0.1 1.7 0.1
0.1 1.7 0.2
0.1 1.7 0.3
0.1 1.7 0.4
0.1 1.7 0.5
0.1 1.7 0.6
0.1 1.7 0.7
0.1 1.7 0.8
0.1 1.7 0.9
0.1 1.7 1
0.1 1.7 1.1
0.1 1.7 1.2
0.1 1.7 1.3
0.1 1.7 1.4
0.1 1.7 1.5
0.1 1.7 1.6
0.1 1.7 1.7
0.1 1.7 1.8
0.1 1.7 1.9
0.1 1.7 2
0.1 1.8 0
0.1 1.8 0.1
0.1 1.8 0.2
0.1 1.8 0.3
0.1 1.8 0.4
0.1 1.8 0.5
0.1 1.8 0.6
0.1 1.8 0.7
0.1 1.8 0.8
0.1 1.8 0.9
0.1 1.8 1
0.1 1.8 1.1
0.1 1.8 1.2
0.1 1.8 1.3
0.1 1.8 1.4
0.1 1.8 1.5
0.1 1.8 1.6
0.1 1.8 1.7
0.1 1.8 1.8
0.1 1.8 1.9
0.1 1.8 2
0.1 1.9 0
0.1 1.9 0.1
0.1 1.9 0.2
0.1 1.9 0.3
0.1 1.9 0.4
0.1 1.9 0.5
0.1 1.9 0.6
0.1 1.9 0.7
0.1 1.9 0.8
0.1 1.9 0.9
0.1 1.9 1
0.1 1.9 1.1
0.1 1.9 1.2
0.1 1.9 1.3
0.1 1.9 1.4
0.1 1.9 1.5
0.1 1.9 1.6
0.1 1.9 1.7
0.1 1.9 1.8
0.1 1.9 1.9
0.1 1.9 2
0.1 2 0
0.1 2 0.1
0.1 2 0.2
0.1 2 0.3
0.1 2 0.4
0.1 2 0.5
0.1 2 0.6
0.1 2 0.7
0.1 2 0.8
0.1 2 0.9
0.1 2 1
0.1 2 1.1
0.1 2 1.2
0.1 2 1.3
0.1 2 1.4
0.1 2 1.5
0.1 2 1.6
0.1 2 1.7
0.1 2 1.8
0.1 2 1.9
0.1 2 2
0.2 0 0
0.2 0 0.1
0.2 0 0.2
0.2 0 0.3
0.2 0 0.4
0.2 0 0.5
0.2 0 0.6
0.2 0 0.7
0.2 0 0.8
0.2 0 0.9
0.2 0 1
0.2 0 1.1
0.2 0 1.2
0.2 0 1.3
0.2 0 1.4
0.2 0 1.5
0.2 0 1.6
0.2 0 1.7
0.2 0 1.8
0.2 0 1.9
0.2 0 2
0.2 0.1 0
0.2 0.1 0.1
0.2 0.1 0.2
0.2 0.1 0.3
0.2 0.1 0.4
0.2 0.1 0.5
0.2 0.1 0.6
0.2 0.1 0.7
0.2 0.1 0.8
0.2 0.1 0.9
0.2 0.1 1
0.2 0.1 1.1
0.2 0.1 1.2
0.2 0.1 1.3
0.2 0.1 1.4
0.2 0.1 1.5
0.2 0.1 1.6
0.2 0.1 1.7
0.2 0.1 1.8
0.2 0.1 1.9
0.2 0.1 2
0.2 0.2 0
0.2 0.2 0.1
0.2 0.2 0.2
0.2 0.2 0.3
0.2 0.2 0.4
0.2 0.2 0.5
0.2 0.2 0.6
0.2 0.2 0.7
0.2 0.2 0.8
0.2 0.2 0.9
0.2 0.2 1
0.2 0.2 1.1
0.2 0.2 1.2
0.2 0.2 1.3
0.2 0.2 1.4
0.2 0.2 1.5
0.2 0.2 1.6
0.2 0.2 1.7
0.2 0.2 1.8
0.2 0.2 1.9
[...]
CELL_DATA 8000
SCALARS Phi_sigma_(3D) float 1
LOOKUP_TABLE default
0.0687443
0.0681858
0.0675743
0.0671307
0.0667881
0.0665391
0.0663743
0.0662667
0.0662224
0.0661965
0.0661911
0.0662091
0.0662802
0.0664281
0.0666337
0.0668831
0.0672089
0.067655
0.0682527
0.0687978
0.0692585
0.0684398
0.0677125
0.0673007
0.0669594
0.0667126
0.0665602
0.0664501
0.066429
0.0664018
0.0663934
0.0663962
0.0664565
0.0666155
0.066829
0.0670617
0.0673668
0.0678006
0.0685061
0.0693023
0.071502
0.0707033
0.0700009
0.0696207
0.0693136
0.0691061
0.0689734
0.068861
0.0688372
0.0688176
0.0688295
0.0688333
0.0688789
0.0690209
0.0692252
0.0694571
0.0697379
0.0701248
0.070798
0.0716104
0.07565
0.0752091
0.0747289
0.0743982
0.0741565
0.0740017
0.0738894
0.0737935
0.0737519
0.0737445
0.0737755
0.0737994
0.0738452
0.0739537
0.0741248
0.0743461
0.074596
0.0749114
0.0753731
0.0758573
0.0804578
0.080237
0.0799565
0.0797231
0.0795439
0.0794182
0.0793281
0.0792629
0.0792322
0.0792305
0.0792546
0.0792899
0.0793468
0.0794427
0.0795801
0.0797535
0.0799545
0.0801929
0.0804755
0.0807147
0.0853217
0.0852109
0.0850532
0.0849032
0.0847796
0.0846872
0.0846218
0.0845796
0.0845619
0.0845663
0.0845902
0.0846296
0.0846881
0.0847717
0.0848817
0.085015
0.0851666
0.0853336
0.0855026
0.0856237
0.0900799
0.0900229
0.0899352
0.0898441
0.0897648
0.0897035
0.0896613
0.0896374
0.0896316
0.0896425
0.0896688
0.089709
0.0897642
0.089836
0.0899242
0.0900262
0.0901376
0.0902518
0.090355
0.090421
0.0946997
0.0946702
0.0946225
0.0945704
0.0945239
0.0944883
0.0944659
0.094457
0.0944616
0.0944788
0.0945077
0.0945476
0.0945983
0.0946597
0.0947309
0.0948093
0.0948909
0.0949695
0.0950353
0.0950742
0.0991765
0.0991618
0.0991376
0.0991111
0.0990881
0.0990724
0.0990661
0.0990697
0.0990832
0.099106
0.0991373
0.0991765
0.0992229
0.0992759
0.099334
0.0993951
0.0994558
0.0995113
0.0995551
0.0995799
0.103501
0.103495
0.103486
0.103476
0.10347
0.103469
0.103476
0.10349
0.103511
0.103538
0.103572
0.10361
0.103653
0.103699
0.103748
0.103797
0.103843
0.103883
0.103914
0.103931
0.107655
0.107654
0.107654
0.107655
0.107661
0.107672
0.107688
0.10771
0.107738
0.107769
0.107805
0.107843
0.107883
0.107925
0.107966
0.108006
0.108042
0.108073
0.108095
0.108107
0.111603
0.111606
0.111612
0.111622
0.111636
0.111656
0.11168
0.111709
0.111741
0.111776
0.111813
0.111851
0.11189
0.111928
0.111964
0.111998
0.112027
0.112051
0.112068
0.112077
0.115305
0.11531
0.115321
0.115336
0.115357
0.115383
0.115414
0.115447
0.115484
0.115522
0.115561
0.115599
0.115637
0.115672
0.115704
0.115733
0.115758
0.115778
0.115792
0.115799
0.118711
0.118718
0.118731
0.118751
0.118777
0.118808
0.118843
0.118881
0.118921
0.118962
0.119002
0.119041
0.119077
0.119111
0.119141
0.119167
0.119188
0.119205
0.119216
0.119222
0.121767
0.121775
0.121791
0.121814
0.121843
0.121878
0.121917
0.121959
0.122002
0.122045
0.122086
0.122125
0.122161
0.122193
0.122221
0.122245
0.122264
0.122279
0.122289
0.122294
0.124418
0.124427
0.124445
0.124471
0.124503
0.124541
0.124583
0.124628
0.124673
0.124717
0.12476
0.124799
0.124835
0.124866
0.124892
0.124914
0.124932
0.124945
0.124954
0.124958
0.126614
0.126624
0.126642
0.12667
0.126705
0.126745
0.12679
0.126836
0.126883
0.126929
0.126972
0.127012
0.127047
0.127078
0.127103
0.127124
0.12714
0.127152
0.12716
0.127164
0.128307
0.128317
0.128337
0.128366
0.128402
0.128444
0.12849
0.128538
0.128587
0.128634
0.128677
0.128717
0.128752
0.128782
0.128807
0.128827
0.128842
0.128854
0.128861
0.128865
0.129459
0.129469
0.12949
0.12952
0.129557
0.1296
0.129647
0.129697
0.129746
0.129793
0.129837
0.129877
0.129912
0.129942
0.129966
0.129986
0.130001
0.130011
0.130018
0.130022
0.130043
0.130053
0.130074
0.130104
0.130142
0.130186
0.130234
0.130283
0.130333
0.130381
0.130425
0.130465
0.1305
0.130529
0.130554
0.130573
0.130587
0.130598
0.130604
0.130608
0.0693183
0.0685117
0.0677913
0.0673805
0.0670416
0.0667984
0.0666468
0.0665352
0.0665119
0.0664855
0.0664799
0.0664836
0.0665425
0.0666993
0.0669126
0.0671476
0.0674525
0.0678824
0.0685805
0.0693696
0.0688851
0.0668721
0.0657757
0.0656055
0.065205
0.0649197
0.0648109
0.0646528
0.0647521
0.064691
0.0646667
0.0646073
0.0646307
0.0648625
0.0651302
0.0652953
0.06555
0.0658778
0.0669084
0.0688304
0.0709558
0.0689207
0.0677896
0.0676376
0.0672703
0.0670726
0.0669922
0.0667916
0.0668666
0.0668145
0.0668673
0.0668022
0.066778
0.0669712
0.0672353
0.0674576
0.0676892
0.0679228
0.0689256
0.0710387
0.0760224
0.075316
0.0746666
0.0743461
0.0741076
0.0740185
0.0739285
0.0737799
0.0737288
0.0737235
0.0738249
0.0738284
0.0738225
0.073911
0.0740954
0.074376
0.0746084
0.0748503
0.0754062
0.0763136
0.0812403
0.0809671
0.0806557
0.0804271
0.0802541
0.0801403
0.0800571
0.0799892
0.0799611
0.0799615
0.0799933
0.0800247
0.0800742
0.0801672
0.0803045
0.0804791
0.0806713
0.0808985
0.0812043
0.0815126
0.0861803
0.0860612
0.0859008
0.0857557
0.0856374
0.0855501
0.0854889
0.0854495
0.0854346
0.0854406
0.0854655
0.0855041
0.0855613
0.0856436
0.0857513
0.0858806
0.0860267
0.0861889
0.0863603
0.0864911
0.0909363
0.0908793
0.0907937
0.0907067
0.0906316
0.0905741
0.0905351
0.0905139
0.0905104
0.0905227
0.0905496
0.0905897
0.0906444
0.0907152
0.0908013
0.0909001
0.0910077
0.0911185
0.09122
0.0912861
0.0955493
0.0955209
0.0954755
0.0954265
0.0953832
0.0953506
0.0953308
0.0953243
0.0953307
0.0953492
0.0953788
0.0954188
0.0954692
0.0955298
0.0955995
0.0956757
0.0957549
0.095831
0.0958949
0.095933
0.100033
0.100019
0.0999971
0.0999729
0.0999524
0.0999392
0.0999351
0.0999407
0.0999558
0.0999798
0.100012
0.100051
0.100098
0.10015
0.100207
0.100267
0.100326
0.10038
0.100422
0.100446
0.104381
0.104376
0.104368
0.10436
0.104356
0.104357
0.104366
0.104381
0.104404
0.104433
0.104467
0.104506
0.104549
0.104595
0.104643
0.10469
0.104736
0.104775
0.104805
0.104821
0.108571
0.108571
0.108572
0.108575
0.108583
0.108596
0.108614
0.108638
0.108666
0.108699
0.108736
0.108775
0.108815
0.108856
0.108897
0.108936
0.108972
0.109002
0.109023
0.109035
0.112567
0.11257
0.112577
0.112589
0.112605
0.112626
0.112652
0.112683
0.112717
0.112753
0.112791
0.11283
0.112869
0.112907
0.112943
0.112976
0.113004
0.113028
0.113045
0.113053
0.116323
0.116328
0.11634
0.116357
0.11638
0.116408
0.11644
0.116476
0.116514
0.116554
0.116593
0.116632
0.11667
0.116705
0.116738
0.116766
0.116791
0.11681
0.116823
0.11683
0.119786
0.119793
0.119807
0.119829
0.119857
0.11989
0.119927
0.119968
0.120009
0.120052
0.120093
0.120132
0.120169
0.120203
0.120232
0.120258
0.120279
0.120295
0.120306
0.120312
0.122898
0.122907
0.122924
0.122949
0.122981
0.123018
0.123059
0.123103
0.123148
0.123193
0.123235
0.123275
0.123311
0.123343
0.123371
0.123394
0.123413
0.123427
0.123437
0.123441
0.125604
0.125614
0.125632
0.12566
0.125695
0.125735
0.12578
0.125827
0.125874
0.12592
0.125964
0.126004
0.12604
0.126071
0.126097
0.126119
0.126136
0.126148
0.126157
0.126161
0.127847
0.127857
0.127878
0.127907
0.127944
0.127987
0.128034
0.128083
0.128133
0.12818
0.128225
0.128265
0.128301
0.128331
0.128357
0.128377
0.128392
0.128404
0.128411
0.128415
0.129578
0.129589
0.12961
0.129641
0.12968
0.129725
0.129774
0.129825
0.129875
0.129924
0.129969
0.13001
0.130045
0.130075
0.1301
0.130119
0.130134
0.130144
0.130151
0.130154
0.130757
0.130768
0.13079
0.130822
0.130862
0.130908
0.130958
0.13101
0.131062
0.131111
0.131157
0.131198
0.131233
0.131263
0.131287
0.131305
0.131319
0.131329
0.131336
0.131339
0.131355
0.131366
0.131389
0.131421
0.131461
0.131508
0.131559
0.131611
0.131663
0.131713
0.131759
0.1318
0.131835
0.131864
0.131888
0.131906
0.13192
0.13193
0.131936
0.131939
0.0716703
0.0709257
0.0702442
0.0698604
0.0695606
0.0693673
0.0692369
0.0691183
0.0690847
0.0690679
0.0690922
0.0690993
0.0691391
0.0692718
0.0694745
0.0697185
0.0699999
0.0703748
0.0710221
0.0718066
0.0711232
0.0692946
0.0681786
0.0679651
0.0676193
0.0674895
0.0674137
0.0671807
0.0672055
0.0671657
0.0672845
0.0672264
0.0671713
0.0673216
0.0675799
0.0678762
0.0681151
0.0683151
0.0692579
0.0713202
0.0733208
0.0714276
0.0703699
0.070231
0.0698977
0.0697154
0.0696427
0.0694628
0.0695369
0.0694925
0.06954
0.0694812
0.0694632
0.0696476
0.0698951
0.0700976
0.070308
0.070528
0.071473
0.0734346
0.0782602
0.0774072
0.0768691
0.07668
0.0764355
0.0762058
0.0761063
0.0760638
0.0761157
0.0760941
0.0760341
0.0760365
0.0761179
0.0762896
0.0764616
0.0765529
0.0767527
0.0770725
0.0776485
0.0783419
0.0832054
0.0829219
0.0826442
0.0824544
0.0822928
0.0821654
0.0820871
0.0820445
0.0820393
0.0820383
0.0820448
0.0820745
0.082139
0.082244
0.0823708
0.0825049
0.0826773
0.0829016
0.0831923
0.0834568
0.0879924
0.0878786
0.0877343
0.0876068
0.0875
0.087418
0.0873637
0.0873339
0.087327
0.0873348
0.0873565
0.0873948
0.0874538
0.0875358
0.0876367
0.0877522
0.0878859
0.0880377
0.0881964
0.0883136
0.09266
0.0926078
0.0925314
0.0924547
0.0923883
0.0923377
0.0923049
0.0922895
0.0922905
0.0923052
0.0923326
0.092373
0.0924273
0.0924961
0.0925777
0.0926694
0.0927692
0.0928719
0.0929654
0.0930257
0.0972385
0.0972133
0.0971735
0.0971313
0.0970944
0.0970677
0.0970531
0.097051
0.097061
0.0970818
0.0971127
0.0971531
0.0972031
0.097262
0.0973286
0.0974005
0.0974745
0.0975455
0.0976046
0.0976396
0.101733
0.101722
0.101703
0.101684
0.101668
0.10166
0.10166
0.10167
0.101688
0.101714
0.101748
0.101788
0.101834
0.101885
0.10194
0.101997
0.102053
0.102103
0.102143
0.102165
0.10613
0.106126
0.106121
0.106116
0.106116
0.106122
0.106134
0.106154
0.106179
0.10621
0.106246
0.106286
0.106329
0.106375
0.106421
0.106467
0.106509
0.106547
0.106574
0.10659
0.110396
0.110397
0.1104
0.110407
0.110418
0.110435
0.110457
0.110484
0.110516
0.110552
0.11059
0.11063
0.11067
0.110711
0.110751
0.110789
0.110823
0.110851
0.110872
0.110882
0.114489
0.114494
0.114503
0.114517
0.114537
0.114562
0.114592
0.114626
0.114664
0.114703
0.114743
0.114783
0.114822
0.11486
0.114895
0.114927
0.114954
0.114977
0.114992
0.115
0.118356
0.118363
0.118376
0.118397
0.118423
0.118455
0.118492
0.118531
0.118573
0.118615
0.118657
0.118698
0.118736
0.118771
0.118803
0.11883
0.118853
0.118871
0.118884
0.11889
0.121937
0.121945
0.121962
0.121987
0.122019
0.122056
0.122098
0.122142
0.122188
0.122233
0.122277
0.122317
0.122355
0.122388
0.122417
0.122442
0.122462
0.122477
0.122487
0.122492
0.125167
0.125177
0.125196
0.125225
0.125261
0.125303
0.125349
0.125397
0.125446
0.125494
0.125539
0.12558
0.125617
0.125649
0.125676
0.125698
0.125716
0.125728
0.125737
0.125741
0.127983
0.127994
0.128016
0.128047
0.128086
0.128132
0.128181
0.128233
0.128285
0.128334
0.128381
0.128423
0.128459
0.12849
0.128516
0.128536
0.128551
0.128562
0.12857
0.128573
0.130323
0.130335
0.130358
0.130392
0.130434
0.130482
0.130535
0.130589
0.130643
0.130694
0.130742
0.130784
0.13082
0.13085
0.130875
0.130894
0.130908
0.130917
0.130924
0.130927
0.132133
0.132146
0.13217
0.132205
0.132249
0.1323
0.132355
0.132411
0.132466
0.132519
0.132567
0.132609
0.132646
0.132675
0.132699
0.132716
0.132729
0.132738
0.132744
0.132746
0.133368
0.133381
0.133406
0.133442
0.133487
0.133539
0.133595
0.133653
0.13371
0.133763
0.133811
0.133854
0.13389
0.133919
0.133942
0.133959
0.133971
0.133979
0.133984
0.133987
0.133994
0.134007
0.134033
0.134069
0.134115
0.134168
0.134225
0.134283
0.13434
0.134394
0.134443
0.134485
0.134521
0.13455
0.134573
0.134589
0.134601
0.134609
0.134614
0.134616
0.0758777
0.0754675
0.0750204
0.0747031
0.0744639
0.0742988
0.0741845
0.0740991
0.0740639
0.0740549
0.0740731
0.0740986
0.0741539
0.0742681
0.0744348
0.0746407
0.0748867
0.0752044
0.075644
0.0760711
0.0763283
0.0756751
0.0751087
0.0748138
0.0745745
0.0744233
0.0743218
0.0742221
0.0742007
0.0741916
0.0742226
0.0742334
0.0742698
0.0743877
0.0745647
0.0747727
0.0750024
0.0752969
0.0758355
0.0765322
0.0781645
0.0773092
0.0767074
0.0764896
0.0762539
0.0761035
0.0760189
0.0759198
0.075931
0.075916
0.0759419
0.0759401
0.0759718
0.0761032
0.0762809
0.0764593
0.0766619
0.0769138
0.07748
0.0783627
0.0819758
0.0815704
0.081211
0.0810012
0.0808201
0.0806801
0.0805971
0.0805483
0.0805483
0.0805447
0.0805481
0.0805709
0.080633
0.0807471
0.080885
0.081025
0.0812069
0.0814548
0.0818221
0.0822059
0.0862587
0.0860796
0.0858776
0.0857197
0.0855896
0.0854898
0.085426
0.0853918
0.0853856
0.0853906
0.0854071
0.085442
0.0855035
0.0855947
0.0857059
0.0858305
0.0859813
0.0861657
0.0863807
0.0865569
0.090699
0.0906161
0.0905047
0.0904016
0.0903147
0.0902485
0.0902056
0.0901844
0.0901826
0.0901946
0.0902194
0.090259
0.0903164
0.0903924
0.0904836
0.0905872
0.0907045
0.0908332
0.0909605
0.0910491
0.0952
0.0951596
0.0950992
0.0950379
0.0949849
0.0949455
0.0949217
0.0949136
0.0949198
0.0949382
0.0949678
0.0950088
0.0950619
0.0951268
0.095202
0.095285
0.0953737
0.095463
0.0955419
0.0955912
0.0997246
0.099705
0.0996741
0.0996417
0.0996144
0.0995962
0.099589
0.0995931
0.0996078
0.0996321
0.0996651
0.0997062
0.0997553
0.0998116
0.0998738
0.0999398
0.100007
0.10007
0.100121
0.100151
0.104244
0.104235
0.104222
0.10421
0.104201
0.1042
0.104207
0.104222
0.104244
0.104274
0.10431
0.104351
0.104397
0.104446
0.104498
0.104551
0.104602
0.104648
0.104683
0.104703
0.108721
0.10872
0.108718
0.10872
0.108725
0.108737
0.108756
0.10878
0.10881
0.108844
0.108883
0.108924
0.108967
0.109011
0.109055
0.109098
0.109138
0.109172
0.109197
0.109211
0.113111
0.113114
0.113121
0.113132
0.113149
0.113172
0.113199
0.113232
0.113268
0.113307
0.113348
0.113389
0.11343
0.113471
0.113509
0.113545
0.113576
0.113602
0.113621
0.11363
0.117359
0.117365
0.117378
0.117397
0.117422
0.117453
0.117489
0.117528
0.11757
0.117613
0.117656
0.117698
0.117738
0.117775
0.117809
0.117839
0.117865
0.117885
0.117899
0.117906
0.1214
0.121409
0.121426
0.121451
0.121483
0.121521
0.121564
0.12161
0.121657
0.121703
0.121748
0.121791
0.121829
0.121864
0.121895
0.121921
0.121942
0.121958
0.121969
0.121975
0.125165
0.125176
0.125196
0.125226
0.125264
0.125308
0.125357
0.125408
0.125459
0.125509
0.125556
0.125599
0.125637
0.12567
0.125698
0.125721
0.125738
0.125751
0.12576
0.125764
0.12858
0.128592
0.128615
0.128649
0.128692
0.128741
0.128795
0.12885
0.128905
0.128958
0.129006
0.12905
0.129088
0.129119
0.129145
0.129165
0.12918
0.129191
0.129198
0.129201
0.131569
0.131582
0.131608
0.131646
0.131692
0.131746
0.131803
0.131863
0.131921
0.131976
0.132026
0.13207
0.132108
0.132138
0.132162
0.13218
0.132193
0.132202
0.132207
0.13221
0.134062
0.134076
0.134104
0.134145
0.134194
0.134251
0.134313
0.134375
0.134436
0.134493
0.134544
0.134589
0.134626
0.134656
0.134678
0.134694
0.134705
0.134712
0.134717
0.134719
0.135996
0.136011
0.13604
0.136082
0.136135
0.136194
0.136258
0.136323
0.136386
0.136444
0.136497
0.136542
0.136579
0.136607
0.136629
0.136644
0.136653
0.136659
0.136662
0.136664
0.137317
0.137333
0.137363
0.137407
0.137461
0.137522
0.137588
0.137654
0.137718
0.137778
0.137831
0.137876
0.137912
0.137941
0.137961
0.137975
0.137984
0.137989
0.137992
0.137993
0.137988
0.138004
0.138035
0.138079
0.138134
0.138197
0.138263
0.13833
0.138395
0.138455
0.138508
0.138553
0.13859
0.138618
0.138638
0.138651
0.13866
0.138664
0.138667
0.138668
0.0806363
0.0804293
0.0801659
0.0799421
0.0797653
0.0796361
0.0795456
0.0794852
0.079458
0.0794553
0.0794741
0.0795095
0.0795707
0.079669
0.0798035
0.079969
0.0801656
0.0804009
0.0806698
0.0808854
0.0814032
0.0811457
0.0808551
0.0806363
0.0804646
0.0803418
0.0802571
0.0801978
0.0801755
0.0801745
0.0801953
0.0802274
0.0802844
0.0803823
0.0805164
0.0806779
0.0808669
0.0810975
0.081391
0.0816607
0.0832411
0.0829591
0.0826736
0.0824799
0.0823222
0.082209
0.0821341
0.0820822
0.0820694
0.0820705
0.0820908
0.0821209
0.0821764
0.0822736
0.0824017
0.0825491
0.0827215
0.0829338
0.0832229
0.0835136
0.0862754
0.0860964
0.085893
0.0857345
0.0856056
0.0855089
0.0854459
0.08541
0.0854021
0.0854077
0.0854268
0.085462
0.0855216
0.085611
0.0857225
0.0858495
0.0860003
0.0861824
0.0863975
0.0865782
0.0899941
0.0898955
0.0897672
0.0896526
0.0895575
0.0894856
0.089439
0.0894155
0.0894127
0.0894238
0.0894478
0.089487
0.0895451
0.0896237
0.0897188
0.0898273
0.0899515
0.0900912
0.0902349
0.0903387
0.0941
0.0940474
0.0939715
0.0938969
0.0938335
0.0937861
0.093757
0.0937454
0.0937497
0.0937668
0.0937955
0.0938366
0.0938914
0.09396
0.0940404
0.0941303
0.0942284
0.0943304
0.0944244
0.0944852
0.0984408
0.0984134
0.0983713
0.0983278
0.098291
0.0982652
0.0982525
0.0982528
0.0982653
0.0982882
0.0983206
0.0983624
0.0984137
0.0984738
0.0985415
0.0986145
0.0986903
0.098764
0.0988264
0.0988639
0.102931
0.102918
0.102898
0.102877
0.102861
0.102853
0.102855
0.102867
0.102888
0.102916
0.102952
0.102994
0.103042
0.103095
0.103152
0.103211
0.103269
0.103323
0.103366
0.10339
0.107509
0.107504
0.107498
0.107494
0.107495
0.107502
0.107517
0.107539
0.107567
0.107601
0.107639
0.107682
0.107727
0.107774
0.107823
0.107871
0.107916
0.107956
0.107986
0.108002
0.112115
0.112116
0.11212
0.112128
0.112142
0.112162
0.112187
0.112219
0.112254
0.112293
0.112335
0.112377
0.11242
0.112463
0.112505
0.112544
0.11258
0.112609
0.112631
0.112643
0.116688
0.116693
0.116705
0.116722
0.116746
0.116776
0.116812
0.116851
0.116893
0.116937
0.116981
0.117024
0.117066
0.117105
0.117141
0.117174
0.117202
0.117225
0.117241
0.11725
0.121158
0.121166
0.121183
0.121208
0.121241
0.12128
0.121324
0.121371
0.121419
0.121467
0.121514
0.121558
0.121598
0.121635
0.121667
0.121694
0.121717
0.121735
0.121747
0.121753
0.125447
0.125458
0.12548
0.125512
0.125552
0.125599
0.12565
0.125704
0.125757
0.12581
0.125859
0.125904
0.125943
0.125978
0.126006
0.126029
0.126048
0.126061
0.12607
0.126074
0.129473
0.129486
0.129512
0.129549
0.129596
0.129649
0.129707
0.129767
0.129826
0.129882
0.129934
0.12998
0.130019
0.130051
0.130077
0.130096
0.130111
0.130121
0.130127
0.13013
0.133147
0.133162
0.133192
0.133234
0.133286
0.133346
0.13341
0.133475
0.133539
0.133598
0.133652
0.133698
0.133737
0.133767
0.133791
0.133807
0.133819
0.133826
0.13383
0.133832
0.136382
0.136398
0.136431
0.136477
0.136534
0.136599
0.136669
0.136739
0.136806
0.136869
0.136924
0.136971
0.137009
0.137038
0.137059
0.137073
0.137082
0.137087
0.137089
0.13709
0.139092
0.13911
0.139145
0.139194
0.139256
0.139325
0.139399
0.139473
0.139544
0.139609
0.139666
0.139713
0.139751
0.139779
0.139798
0.13981
0.139816
0.139819
0.13982
0.13982
0.141201
0.14122
0.141257
0.141309
0.141374
0.141447
0.141524
0.141601
0.141674
0.141741
0.141799
0.141847
0.141884
0.141911
0.141929
0.141939
0.141943
0.141944
0.141944
0.141944
0.142646
0.142666
0.142704
0.142758
0.142825
0.1429
0.142979
0.143058
0.143134
0.143202
0.143261
0.143309
0.143346
0.143372
0.143388
0.143397
0.1434
0.1434
0.143399
0.143398
0.143381
0.143401
0.14344
0.143495
0.143563
0.14364
0.14372
0.1438
0.143876
0.143945
0.144004
0.144052
0.144089
0.144115
0.144131
0.144139
0.144141
0.144141
0.144139
0.144138
0.0854527
0.0853477
0.0851979
0.0850533
0.084932
0.0848394
0.0847744
0.0847341
0.0847178
0.0847219
0.0847442
0.0847834
0.0848431
0.0849272
0.0850353
0.0851648
0.0853131
0.0854764
0.0856383
0.0857507
0.0862912
0.0861775
0.0860241
0.0858835
0.0857671
0.0856792
0.0856183
0.0855808
0.0855673
0.085573
0.085596
0.0856346
0.085693
0.0857758
0.0858819
0.0860077
0.0861512
0.0863111
0.0864765
0.0865984
0.0880518
0.0879395
0.0877956
0.0876689
0.087564
0.0874854
0.0874322
0.087401
0.0873928
0.0874012
0.0874253
0.0874636
0.0875208
0.087601
0.0877017
0.0878186
0.0879514
0.0880998
0.0882568
0.0883769
0.0907305
0.090648
0.0905367
0.0904339
0.090348
0.0902833
0.0902411
0.0902193
0.0902169
0.0902292
0.090255
0.0902947
0.0903513
0.0904264
0.0905175
0.0906216
0.0907384
0.0908658
0.0909928
0.0910826
0.094113
0.0940605
0.0939847
0.0939103
0.0938472
0.0938003
0.0937714
0.0937597
0.0937639
0.093781
0.0938099
0.093851
0.0939056
0.093974
0.0940543
0.0941443
0.0942422
0.0943439
0.0944377
0.0944987
0.0980008
0.0979701
0.0979233
0.0978754
0.097835
0.0978064
0.0977917
0.0977907
0.0978023
0.0978248
0.097857
0.097899
0.097951
0.0980125
0.0980822
0.0981579
0.0982371
0.098315
0.0983819
0.0984226
0.102252
0.102236
0.10221
0.102185
0.102164
0.102153
0.102152
0.102162
0.102181
0.102209
0.102245
0.102287
0.102337
0.102392
0.102452
0.102514
0.102577
0.102636
0.102683