# vtk DataFile Version 2.0
Pressure 3D1D coupled problem
ASCII
DATASET UNSTRUCTURED_GRID
POINTS 9261 float
0 0 0
0 0 0.1
0 0 0.2
0 0 0.3
0 0 0.4
0 0 0.5
0 0 0.6
0 0 0.7
0 0 0.8
0 0 0.9
0 0 1
0 0 1.1
0 0 1.2
0 0 1.3
0 0 1.4
0 0 1.5
0 0 1.6
0 0 1.7
0 0 1.8
0 0 1.9
0 0 2
0 0.1 0
0 0.1 0.1
0 0.1 0.2
0 0.1 0.3
0 0.1 0.4
0 0.1 0.5
0 0.1 0.6
0 0.1 0.7
0 0.1 0.8
0 0.1 0.9
0 0.1 1
0 0.1 1.1
0 0.1 1.2
0 0.1 1.3
0 0.1 1.4
0 0.1 1.5
0 0.1 1.6
0 0.1 1.7
0 0.1 1.8
0 0.1 1.9
0 0.1 2
0 0.2 0
0 0.2 0.1
0 0.2 0.2
0 0.2 0.3
0 0.2 0.4
0 0.2 0.5
0 0.2 0.6
0 0.2 0.7
0 0.2 0.8
0 0.2 0.9
0 0.2 1
0 0.2 1.1
0 0.2 1.2
0 0.2 1.3
0 0.2 1.4
0 0.2 1.5
0 0.2 1.6
0 0.2 1.7
0 0.2 1.8
0 0.2 1.9
0 0.2 2
0 0.3 0
0 0.3 0.1
0 0.3 0.2
0 0.3 0.3
0 0.3 0.4
0 0.3 0.5
0 0.3 0.6
0 0.3 0.7
0 0.3 0.8
0 0.3 0.9
0 0.3 1
0 0.3 1.1
0 0.3 1.2
0 0.3 1.3
0 0.3 1.4
0 0.3 1.5
0 0.3 1.6
0 0.3 1.7
0 0.3 1.8
0 0.3 1.9
0 0.3 2
0 0.4 0
0 0.4 0.1
0 0.4 0.2
0 0.4 0.3
0 0.4 0.4
0 0.4 0.5
0 0.4 0.6
0 0.4 0.7
0 0.4 0.8
0 0.4 0.9
0 0.4 1
0 0.4 1.1
0 0.4 1.2
0 0.4 1.3
0 0.4 1.4
0 0.4 1.5
0 0.4 1.6
0 0.4 1.7
0 0.4 1.8
0 0.4 1.9
0 0.4 2
0 0.5 0
0 0.5 0.1
0 0.5 0.2
0 0.5 0.3
0 0.5 0.4
0 0.5 0.5
0 0.5 0.6
0 0.5 0.7
0 0.5 0.8
0 0.5 0.9
0 0.5 1
0 0.5 1.1
0 0.5 1.2
0 0.5 1.3
0 0.5 1.4
0 0.5 1.5
0 0.5 1.6
0 0.5 1.7
0 0.5 1.8
0 0.5 1.9
0 0.5 2
0 0.6 0
0 0.6 0.1
0 0.6 0.2
0 0.6 0.3
0 0.6 0.4
0 0.6 0.5
0 0.6 0.6
0 0.6 0.7
0 0.6 0.8
0 0.6 0.9
0 0.6 1
0 0.6 1.1
0 0.6 1.2
0 0.6 1.3
0 0.6 1.4
0 0.6 1.5
0 0.6 1.6
0 0.6 1.7
0 0.6 1.8
0 0.6 1.9
0 0.6 2
0 0.7 0
0 0.7 0.1
0 0.7 0.2
0 0.7 0.3
0 0.7 0.4
0 0.7 0.5
0 0.7 0.6
0 0.7 0.7
0 0.7 0.8
0 0.7 0.9
0 0.7 1
0 0.7 1.1
0 0.7 1.2
0 0.7 1.3
0 0.7 1.4
0 0.7 1.5
0 0.7 1.6
0 0.7 1.7
0 0.7 1.8
0 0.7 1.9
0 0.7 2
0 0.8 0
0 0.8 0.1
0 0.8 0.2
0 0.8 0.3
0 0.8 0.4
0 0.8 0.5
0 0.8 0.6
0 0.8 0.7
0 0.8 0.8
0 0.8 0.9
0 0.8 1
0 0.8 1.1
0 0.8 1.2
0 0.8 1.3
0 0.8 1.4
0 0.8 1.5
0 0.8 1.6
0 0.8 1.7
0 0.8 1.8
0 0.8 1.9
0 0.8 2
0 0.9 0
0 0.9 0.1
0 0.9 0.2
0 0.9 0.3
0 0.9 0.4
0 0.9 0.5
0 0.9 0.6
0 0.9 0.7
0 0.9 0.8
0 0.9 0.9
0 0.9 1
0 0.9 1.1
0 0.9 1.2
0 0.9 1.3
0 0.9 1.4
0 0.9 1.5
0 0.9 1.6
0 0.9 1.7
0 0.9 1.8
0 0.9 1.9
0 0.9 2
0 1 0
0 1 0.1
0 1 0.2
0 1 0.3
0 1 0.4
0 1 0.5
0 1 0.6
0 1 0.7
0 1 0.8
0 1 0.9
0 1 1
0 1 1.1
0 1 1.2
0 1 1.3
0 1 1.4
0 1 1.5
0 1 1.6
0 1 1.7
0 1 1.8
0 1 1.9
0 1 2
0 1.1 0
0 1.1 0.1
0 1.1 0.2
0 1.1 0.3
0 1.1 0.4
0 1.1 0.5
0 1.1 0.6
0 1.1 0.7
0 1.1 0.8
0 1.1 0.9
0 1.1 1
0 1.1 1.1
0 1.1 1.2
0 1.1 1.3
0 1.1 1.4
0 1.1 1.5
0 1.1 1.6
0 1.1 1.7
0 1.1 1.8
0 1.1 1.9
0 1.1 2
0 1.2 0
0 1.2 0.1
0 1.2 0.2
0 1.2 0.3
0 1.2 0.4
0 1.2 0.5
0 1.2 0.6
0 1.2 0.7
0 1.2 0.8
0 1.2 0.9
0 1.2 1
0 1.2 1.1
0 1.2 1.2
0 1.2 1.3
0 1.2 1.4
0 1.2 1.5
0 1.2 1.6
0 1.2 1.7
0 1.2 1.8
0 1.2 1.9
0 1.2 2
0 1.3 0
0 1.3 0.1
0 1.3 0.2
0 1.3 0.3
0 1.3 0.4
0 1.3 0.5
0 1.3 0.6
0 1.3 0.7
0 1.3 0.8
0 1.3 0.9
0 1.3 1
0 1.3 1.1
0 1.3 1.2
0 1.3 1.3
0 1.3 1.4
0 1.3 1.5
0 1.3 1.6
0 1.3 1.7
0 1.3 1.8
0 1.3 1.9
0 1.3 2
0 1.4 0
0 1.4 0.1
0 1.4 0.2
0 1.4 0.3
0 1.4 0.4
0 1.4 0.5
0 1.4 0.6
0 1.4 0.7
0 1.4 0.8
0 1.4 0.9
0 1.4 1
0 1.4 1.1
0 1.4 1.2
0 1.4 1.3
0 1.4 1.4
0 1.4 1.5
0 1.4 1.6
0 1.4 1.7
0 1.4 1.8
0 1.4 1.9
0 1.4 2
0 1.5 0
0 1.5 0.1
0 1.5 0.2
0 1.5 0.3
0 1.5 0.4
0 1.5 0.5
0 1.5 0.6
0 1.5 0.7
0 1.5 0.8
0 1.5 0.9
0 1.5 1
0 1.5 1.1
0 1.5 1.2
0 1.5 1.3
0 1.5 1.4
0 1.5 1.5
0 1.5 1.6
0 1.5 1.7
0 1.5 1.8
0 1.5 1.9
0 1.5 2
0 1.6 0
0 1.6 0.1
0 1.6 0.2
0 1.6 0.3
0 1.6 0.4
0 1.6 0.5
0 1.6 0.6
0 1.6 0.7
0 1.6 0.8
0 1.6 0.9
0 1.6 1
0 1.6 1.1
0 1.6 1.2
0 1.6 1.3
0 1.6 1.4
0 1.6 1.5
0 1.6 1.6
0 1.6 1.7
0 1.6 1.8
0 1.6 1.9
0 1.6 2
0 1.7 0
0 1.7 0.1
0 1.7 0.2
0 1.7 0.3
0 1.7 0.4
0 1.7 0.5
0 1.7 0.6
0 1.7 0.7
0 1.7 0.8
0 1.7 0.9
0 1.7 1
0 1.7 1.1
0 1.7 1.2
0 1.7 1.3
0 1.7 1.4
0 1.7 1.5
0 1.7 1.6
0 1.7 1.7
0 1.7 1.8
0 1.7 1.9
0 1.7 2
0 1.8 0
0 1.8 0.1
0 1.8 0.2
0 1.8 0.3
0 1.8 0.4
0 1.8 0.5
0 1.8 0.6
0 1.8 0.7
0 1.8 0.8
0 1.8 0.9
0 1.8 1
0 1.8 1.1
0 1.8 1.2
0 1.8 1.3
0 1.8 1.4
0 1.8 1.5
0 1.8 1.6
0 1.8 1.7
0 1.8 1.8
0 1.8 1.9
0 1.8 2
0 1.9 0
0 1.9 0.1
0 1.9 0.2
0 1.9 0.3
0 1.9 0.4
0 1.9 0.5
0 1.9 0.6
0 1.9 0.7
0 1.9 0.8
0 1.9 0.9
0 1.9 1
0 1.9 1.1
0 1.9 1.2
0 1.9 1.3
0 1.9 1.4
0 1.9 1.5
0 1.9 1.6
0 1.9 1.7
0 1.9 1.8
0 1.9 1.9
0 1.9 2
0 2 0
0 2 0.1
0 2 0.2
0 2 0.3
0 2 0.4
0 2 0.5
0 2 0.6
0 2 0.7
0 2 0.8
0 2 0.9
0 2 1
0 2 1.1
0 2 1.2
0 2 1.3
0 2 1.4
0 2 1.5
0 2 1.6
0 2 1.7
0 2 1.8
0 2 1.9
0 2 2
0.1 0 0
0.1 0 0.1
0.1 0 0.2
0.1 0 0.3
0.1 0 0.4
0.1 0 0.5
0.1 0 0.6
0.1 0 0.7
0.1 0 0.8
0.1 0 0.9
0.1 0 1
0.1 0 1.1
0.1 0 1.2
0.1 0 1.3
0.1 0 1.4
0.1 0 1.5
0.1 0 1.6
0.1 0 1.7
0.1 0 1.8
0.1 0 1.9
0.1 0 2
0.1 0.1 0
0.1 0.1 0.1
0.1 0.1 0.2
0.1 0.1 0.3
0.1 0.1 0.4
0.1 0.1 0.5
0.1 0.1 0.6
0.1 0.1 0.7
0.1 0.1 0.8
0.1 0.1 0.9
0.1 0.1 1
0.1 0.1 1.1
0.1 0.1 1.2
0.1 0.1 1.3
0.1 0.1 1.4
0.1 0.1 1.5
0.1 0.1 1.6
0.1 0.1 1.7
0.1 0.1 1.8
0.1 0.1 1.9
0.1 0.1 2
0.1 0.2 0
0.1 0.2 0.1
0.1 0.2 0.2
0.1 0.2 0.3
0.1 0.2 0.4
0.1 0.2 0.5
0.1 0.2 0.6
0.1 0.2 0.7
0.1 0.2 0.8
0.1 0.2 0.9
0.1 0.2 1
0.1 0.2 1.1
0.1 0.2 1.2
0.1 0.2 1.3
0.1 0.2 1.4
0.1 0.2 1.5
0.1 0.2 1.6
0.1 0.2 1.7
0.1 0.2 1.8
0.1 0.2 1.9
0.1 0.2 2
0.1 0.3 0
0.1 0.3 0.1
0.1 0.3 0.2
0.1 0.3 0.3
0.1 0.3 0.4
0.1 0.3 0.5
0.1 0.3 0.6
0.1 0.3 0.7
0.1 0.3 0.8
0.1 0.3 0.9
0.1 0.3 1
0.1 0.3 1.1
0.1 0.3 1.2
0.1 0.3 1.3
0.1 0.3 1.4
0.1 0.3 1.5
0.1 0.3 1.6
0.1 0.3 1.7
0.1 0.3 1.8
0.1 0.3 1.9
0.1 0.3 2
0.1 0.4 0
0.1 0.4 0.1
0.1 0.4 0.2
0.1 0.4 0.3
0.1 0.4 0.4
0.1 0.4 0.5
0.1 0.4 0.6
0.1 0.4 0.7
0.1 0.4 0.8
0.1 0.4 0.9
0.1 0.4 1
0.1 0.4 1.1
0.1 0.4 1.2
0.1 0.4 1.3
0.1 0.4 1.4
0.1 0.4 1.5
0.1 0.4 1.6
0.1 0.4 1.7
0.1 0.4 1.8
0.1 0.4 1.9
0.1 0.4 2
0.1 0.5 0
0.1 0.5 0.1
0.1 0.5 0.2
0.1 0.5 0.3
0.1 0.5 0.4
0.1 0.5 0.5
0.1 0.5 0.6
0.1 0.5 0.7
0.1 0.5 0.8
0.1 0.5 0.9
0.1 0.5 1
0.1 0.5 1.1
0.1 0.5 1.2
0.1 0.5 1.3
0.1 0.5 1.4
0.1 0.5 1.5
0.1 0.5 1.6
0.1 0.5 1.7
0.1 0.5 1.8
0.1 0.5 1.9
0.1 0.5 2
0.1 0.6 0
0.1 0.6 0.1
0.1 0.6 0.2
0.1 0.6 0.3
0.1 0.6 0.4
0.1 0.6 0.5
0.1 0.6 0.6
0.1 0.6 0.7
0.1 0.6 0.8
0.1 0.6 0.9
0.1 0.6 1
0.1 0.6 1.1
0.1 0.6 1.2
0.1 0.6 1.3
0.1 0.6 1.4
0.1 0.6 1.5
0.1 0.6 1.6
0.1 0.6 1.7
0.1 0.6 1.8
0.1 0.6 1.9
0.1 0.6 2
0.1 0.7 0
0.1 0.7 0.1
0.1 0.7 0.2
0.1 0.7 0.3
0.1 0.7 0.4
0.1 0.7 0.5
0.1 0.7 0.6
0.1 0.7 0.7
0.1 0.7 0.8
0.1 0.7 0.9
0.1 0.7 1
0.1 0.7 1.1
0.1 0.7 1.2
0.1 0.7 1.3
0.1 0.7 1.4
0.1 0.7 1.5
0.1 0.7 1.6
0.1 0.7 1.7
0.1 0.7 1.8
0.1 0.7 1.9
0.1 0.7 2
0.1 0.8 0
0.1 0.8 0.1
0.1 0.8 0.2
0.1 0.8 0.3
0.1 0.8 0.4
0.1 0.8 0.5
0.1 0.8 0.6
0.1 0.8 0.7
0.1 0.8 0.8
0.1 0.8 0.9
0.1 0.8 1
0.1 0.8 1.1
0.1 0.8 1.2
0.1 0.8 1.3
0.1 0.8 1.4
0.1 0.8 1.5
0.1 0.8 1.6
0.1 0.8 1.7
0.1 0.8 1.8
0.1 0.8 1.9
0.1 0.8 2
0.1 0.9 0
0.1 0.9 0.1
0.1 0.9 0.2
0.1 0.9 0.3
0.1 0.9 0.4
0.1 0.9 0.5
0.1 0.9 0.6
0.1 0.9 0.7
0.1 0.9 0.8
0.1 0.9 0.9
0.1 0.9 1
0.1 0.9 1.1
0.1 0.9 1.2
0.1 0.9 1.3
0.1 0.9 1.4
0.1 0.9 1.5
0.1 0.9 1.6
0.1 0.9 1.7
0.1 0.9 1.8
0.1 0.9 1.9
0.1 0.9 2
0.1 1 0
0.1 1 0.1
0.1 1 0.2
0.1 1 0.3
0.1 1 0.4
0.1 1 0.5
0.1 1 0.6
0.1 1 0.7
0.1 1 0.8
0.1 1 0.9
0.1 1 1
0.1 1 1.1
0.1 1 1.2
0.1 1 1.3
0.1 1 1.4
0.1 1 1.5
0.1 1 1.6
0.1 1 1.7
0.1 1 1.8
0.1 1 1.9
0.1 1 2
0.1 1.1 0
0.1 1.1 0.1
0.1 1.1 0.2
0.1 1.1 0.3
0.1 1.1 0.4
0.1 1.1 0.5
0.1 1.1 0.6
0.1 1.1 0.7
0.1 1.1 0.8
0.1 1.1 0.9
0.1 1.1 1
0.1 1.1 1.1
0.1 1.1 1.2
0.1 1.1 1.3
0.1 1.1 1.4
0.1 1.1 1.5
0.1 1.1 1.6
0.1 1.1 1.7
0.1 1.1 1.8
0.1 1.1 1.9
0.1 1.1 2
0.1 1.2 0
0.1 1.2 0.1
0.1 1.2 0.2
0.1 1.2 0.3
0.1 1.2 0.4
0.1 1.2 0.5
0.1 1.2 0.6
0.1 1.2 0.7
0.1 1.2 0.8
0.1 1.2 0.9
0.1 1.2 1
0.1 1.2 1.1
0.1 1.2 1.2
0.1 1.2 1.3
0.1 1.2 1.4
0.1 1.2 1.5
0.1 1.2 1.6
0.1 1.2 1.7
0.1 1.2 1.8
0.1 1.2 1.9
0.1 1.2 2
0.1 1.3 0
0.1 1.3 0.1
0.1 1.3 0.2
0.1 1.3 0.3
0.1 1.3 0.4
0.1 1.3 0.5
0.1 1.3 0.6
0.1 1.3 0.7
0.1 1.3 0.8
0.1 1.3 0.9
0.1 1.3 1
0.1 1.3 1.1
0.1 1.3 1.2
0.1 1.3 1.3
0.1 1.3 1.4
0.1 1.3 1.5
0.1 1.3 1.6
0.1 1.3 1.7
0.1 1.3 1.8
0.1 1.3 1.9
0.1 1.3 2
0.1 1.4 0
0.1 1.4 0.1
0.1 1.4 0.2
0.1 1.4 0.3
0.1 1.4 0.4
0.1 1.4 0.5
0.1 1.4 0.6
0.1 1.4 0.7
0.1 1.4 0.8
0.1 1.4 0.9
0.1 1.4 1
0.1 1.4 1.1
0.1 1.4 1.2
0.1 1.4 1.3
0.1 1.4 1.4
0.1 1.4 1.5
0.1 1.4 1.6
0.1 1.4 1.7
0.1 1.4 1.8
0.1 1.4 1.9
0.1 1.4 2
0.1 1.5 0
0.1 1.5 0.1
0.1 1.5 0.2
0.1 1.5 0.3
0.1 1.5 0.4
0.1 1.5 0.5
0.1 1.5 0.6
0.1 1.5 0.7
0.1 1.5 0.8
0.1 1.5 0.9
0.1 1.5 1
0.1 1.5 1.1
0.1 1.5 1.2
0.1 1.5 1.3
0.1 1.5 1.4
0.1 1.5 1.5
0.1 1.5 1.6
0.1 1.5 1.7
0.1 1.5 1.8
0.1 1.5 1.9
0.1 1.5 2
0.1 1.6 0
0.1 1.6 0.1
0.1 1.6 0.2
0.1 1.6 0.3
0.1 1.6 0.4
0.1 1.6 0.5
0.1 1.6 0.6
0.1 1.6 0.7
0.1 1.6 0.8
0.1 1.6 0.9
0.1 1.6 1
0.1 1.6 1.1
0.1 1.6 1.2
0.1 1.6 1.3
0.1 1.6 1.4
0.1 1.6 1.5
0.1 1.6 1.6
0.1 1.6 1.7
0.1 1.6 1.8
0.1 1.6 1.9
0.1 1.6 2
0.1 1.7 0
0.1 1.7 0.1
0.1 1.7 0.2
0.1 1.7 0.3
0.1 1.7 0.4
0.1 1.7 0.5
0.1 1.7 0.6
0.1 1.7 0.7
0.1 1.7 0.8
0.1 1.7 0.9
0.1 1.7 1
0.1 1.7 1.1
0.1 1.7 1.2
0.1 1.7 1.3
0.1 1.7 1.4
0.1 1.7 1.5
0.1 1.7 1.6
0.1 1.7 1.7
0.1 1.7 1.8
0.1 1.7 1.9
0.1 1.7 2
0.1 1.8 0
0.1 1.8 0.1
0.1 1.8 0.2
0.1 1.8 0.3
0.1 1.8 0.4
0.1 1.8 0.5
0.1 1.8 0.6
0.1 1.8 0.7
0.1 1.8 0.8
0.1 1.8 0.9
0.1 1.8 1
0.1 1.8 1.1
0.1 1.8 1.2
0.1 1.8 1.3
0.1 1.8 1.4
0.1 1.8 1.5
0.1 1.8 1.6
0.1 1.8 1.7
0.1 1.8 1.8
0.1 1.8 1.9
0.1 1.8 2
0.1 1.9 0
0.1 1.9 0.1
0.1 1.9 0.2
0.1 1.9 0.3
0.1 1.9 0.4
0.1 1.9 0.5
0.1 1.9 0.6
0.1 1.9 0.7
0.1 1.9 0.8
0.1 1.9 0.9
0.1 1.9 1
0.1 1.9 1.1
0.1 1.9 1.2
0.1 1.9 1.3
0.1 1.9 1.4
0.1 1.9 1.5
0.1 1.9 1.6
0.1 1.9 1.7
0.1 1.9 1.8
0.1 1.9 1.9
0.1 1.9 2
0.1 2 0
0.1 2 0.1
0.1 2 0.2
0.1 2 0.3
0.1 2 0.4
0.1 2 0.5
0.1 2 0.6
0.1 2 0.7
0.1 2 0.8
0.1 2 0.9
0.1 2 1
0.1 2 1.1
0.1 2 1.2
0.1 2 1.3
0.1 2 1.4
0.1 2 1.5
0.1 2 1.6
0.1 2 1.7
0.1 2 1.8
0.1 2 1.9
0.1 2 2
0.2 0 0
0.2 0 0.1
0.2 0 0.2
0.2 0 0.3
0.2 0 0.4
0.2 0 0.5
0.2 0 0.6
0.2 0 0.7
0.2 0 0.8
0.2 0 0.9
0.2 0 1
0.2 0 1.1
0.2 0 1.2
0.2 0 1.3
0.2 0 1.4
0.2 0 1.5
0.2 0 1.6
0.2 0 1.7
0.2 0 1.8
0.2 0 1.9
0.2 0 2
0.2 0.1 0
0.2 0.1 0.1
0.2 0.1 0.2
0.2 0.1 0.3
0.2 0.1 0.4
0.2 0.1 0.5
0.2 0.1 0.6
0.2 0.1 0.7
0.2 0.1 0.8
0.2 0.1 0.9
0.2 0.1 1
0.2 0.1 1.1
0.2 0.1 1.2
0.2 0.1 1.3
0.2 0.1 1.4
0.2 0.1 1.5
0.2 0.1 1.6
0.2 0.1 1.7
0.2 0.1 1.8
0.2 0.1 1.9
0.2 0.1 2
0.2 0.2 0
0.2 0.2 0.1
0.2 0.2 0.2
0.2 0.2 0.3
0.2 0.2 0.4
0.2 0.2 0.5
0.2 0.2 0.6
0.2 0.2 0.7
0.2 0.2 0.8
0.2 0.2 0.9
0.2 0.2 1
0.2 0.2 1.1
0.2 0.2 1.2
0.2 0.2 1.3
0.2 0.2 1.4
0.2 0.2 1.5
0.2 0.2 1.6
0.2 0.2 1.7
0.2 0.2 1.8
0.2 0.2 1.9
[...]
CELL_DATA 8000
SCALARS Phi_sigma_(3D) float 1
LOOKUP_TABLE default
0.122912
0.122005
0.12101
0.120284
0.119722
0.119312
0.119039
0.118862
0.118789
0.118748
0.118743
0.118779
0.118903
0.119153
0.119498
0.119915
0.120455
0.121189
0.122165
0.123051
0.123546
0.122221
0.12104
0.120366
0.119806
0.1194
0.119148
0.118967
0.118931
0.118889
0.118879
0.11889
0.118996
0.119264
0.119621
0.120011
0.120517
0.121231
0.12238
0.123669
0.126776
0.125485
0.124346
0.123724
0.12322
0.122878
0.122658
0.122473
0.122434
0.122403
0.122426
0.122439
0.122521
0.122761
0.123103
0.123491
0.123957
0.124595
0.12569
0.127004
0.132882
0.132168
0.131388
0.130846
0.130448
0.130191
0.130004
0.129846
0.129777
0.129767
0.12982
0.129865
0.129948
0.130133
0.130421
0.130791
0.131207
0.131728
0.132482
0.133267
0.139861
0.139502
0.139044
0.13866
0.138363
0.138153
0.138002
0.137894
0.137842
0.137841
0.137883
0.137946
0.138046
0.138211
0.138444
0.138736
0.139073
0.139468
0.139932
0.140322
0.146748
0.146566
0.146306
0.146058
0.145851
0.145695
0.145584
0.145512
0.145482
0.14549
0.145532
0.145601
0.145703
0.145847
0.146036
0.146262
0.146518
0.146797
0.147078
0.147277
0.153291
0.153197
0.15305
0.152897
0.152762
0.152657
0.152583
0.15254
0.152529
0.152547
0.152592
0.152662
0.152758
0.152883
0.153036
0.153211
0.153401
0.153594
0.153767
0.153877
0.159456
0.159406
0.159324
0.159234
0.159152
0.159089
0.159047
0.159028
0.159033
0.159061
0.15911
0.159178
0.159267
0.159374
0.159499
0.159635
0.159776
0.159911
0.160023
0.160089
0.165258
0.165232
0.165189
0.16514
0.165096
0.165064
0.165048
0.165049
0.165068
0.165104
0.165156
0.165223
0.165304
0.165398
0.1655
0.165608
0.165715
0.165812
0.165888
0.165931
0.170715
0.170703
0.170683
0.170661
0.170644
0.170636
0.17064
0.170657
0.170687
0.17073
0.170785
0.170851
0.170926
0.171008
0.171094
0.171182
0.171265
0.171337
0.171392
0.171422
0.175829
0.175826
0.175821
0.175817
0.175819
0.175829
0.175848
0.175877
0.175917
0.175966
0.176023
0.176088
0.176158
0.176232
0.176307
0.176379
0.176446
0.176502
0.176544
0.176566
0.18059
0.180591
0.180596
0.180605
0.18062
0.180643
0.180674
0.180713
0.18076
0.180814
0.180874
0.180938
0.181005
0.181072
0.181139
0.181201
0.181257
0.181303
0.181335
0.181352
0.184971
0.184977
0.184988
0.185005
0.18503
0.185063
0.185102
0.185149
0.185202
0.18526
0.185322
0.185386
0.18545
0.185514
0.185574
0.185629
0.185678
0.185716
0.185744
0.185758
0.18894
0.188948
0.188964
0.188987
0.189019
0.189059
0.189106
0.189158
0.189216
0.189277
0.189341
0.189405
0.189468
0.189528
0.189584
0.189634
0.189677
0.189712
0.189735
0.189747
0.192456
0.192465
0.192484
0.192512
0.192549
0.192595
0.192646
0.192704
0.192765
0.192829
0.192894
0.192958
0.19302
0.193078
0.193131
0.193178
0.193218
0.193249
0.19327
0.193281
0.195475
0.195485
0.195507
0.195538
0.195579
0.195628
0.195684
0.195745
0.195809
0.195876
0.195942
0.196006
0.196067
0.196124
0.196175
0.196219
0.196256
0.196285
0.196305
0.196315
0.197954
0.197965
0.197988
0.198022
0.198066
0.198118
0.198177
0.198241
0.198307
0.198375
0.198442
0.198506
0.198567
0.198623
0.198672
0.198715
0.19875
0.198777
0.198796
0.198805
0.199854
0.199866
0.199891
0.199926
0.199972
0.200026
0.200087
0.200152
0.200221
0.200289
0.200357
0.200422
0.200482
0.200537
0.200585
0.200627
0.200661
0.200687
0.200705
0.200714
0.201142
0.201155
0.20118
0.201216
0.201263
0.201319
0.201381
0.201448
0.201517
0.201586
0.201654
0.201719
0.201779
0.201834
0.201882
0.201922
0.201956
0.201981
0.201998
0.202007
0.201794
0.201806
0.201832
0.201869
0.201916
0.201972
0.202035
0.202103
0.202172
0.202242
0.20231
0.202375
0.202435
0.202489
0.202537
0.202577
0.20261
0.202635
0.202652
0.202661
0.123643
0.122337
0.121167
0.120495
0.119939
0.119538
0.119288
0.119104
0.119065
0.119024
0.119019
0.119031
0.119135
0.119399
0.119756
0.12015
0.120656
0.121363
0.1225
0.123779
0.122745
0.119496
0.117722
0.117439
0.116785
0.116318
0.116137
0.115879
0.116038
0.115941
0.115906
0.115816
0.115863
0.116247
0.116691
0.116971
0.117395
0.117937
0.119608
0.12271
0.125689
0.122413
0.120587
0.120333
0.119733
0.119408
0.119273
0.118947
0.119066
0.118984
0.119072
0.118974
0.118944
0.119266
0.119703
0.120074
0.120461
0.120851
0.122474
0.125876
0.133251
0.132112
0.131061
0.130537
0.130144
0.129992
0.129842
0.129599
0.129516
0.129509
0.129674
0.129687
0.129686
0.12984
0.130149
0.130613
0.131
0.131403
0.132307
0.133769
0.14086
0.140417
0.13991
0.139534
0.139247
0.139057
0.138917
0.138804
0.138757
0.138759
0.138813
0.13887
0.138958
0.139118
0.139351
0.139644
0.139966
0.140344
0.140845
0.141345
0.147836
0.147641
0.147377
0.147136
0.146938
0.146791
0.146686
0.146619
0.146593
0.146603
0.146646
0.146714
0.146814
0.146956
0.147141
0.147361
0.147608
0.147879
0.148163
0.148378
0.154338
0.154243
0.1541
0.153953
0.153825
0.153726
0.153657
0.153619
0.153611
0.153631
0.153677
0.153746
0.153842
0.153965
0.154114
0.154284
0.154468
0.154656
0.154826
0.154936
0.160449
0.1604
0.160322
0.160237
0.16016
0.160101
0.160063
0.160048
0.160056
0.160085
0.160135
0.160204
0.160292
0.160398
0.16052
0.160653
0.16079
0.160921
0.16103
0.161095
0.166216
0.166191
0.16615
0.166105
0.166065
0.166037
0.166024
0.166028
0.166049
0.166086
0.16614
0.166207
0.166288
0.16638
0.166481
0.166587
0.166691
0.166786
0.16686
0.166902
0.171659
0.171648
0.17163
0.171611
0.171597
0.171592
0.171598
0.171618
0.17165
0.171695
0.171751
0.171818
0.171892
0.171974
0.17206
0.172145
0.172227
0.172298
0.172351
0.17238
0.17678
0.176777
0.176774
0.176772
0.176777
0.176789
0.17681
0.176842
0.176884
0.176934
0.176993
0.177059
0.177129
0.177203
0.177277
0.177349
0.177414
0.17747
0.17751
0.177532
0.181562
0.181564
0.18157
0.181581
0.181598
0.181623
0.181657
0.181698
0.181747
0.181803
0.181864
0.181929
0.181996
0.182064
0.18213
0.182192
0.182247
0.182292
0.182324
0.182341
0.185976
0.185982
0.185994
0.186013
0.18604
0.186075
0.186117
0.186166
0.186221
0.186281
0.186344
0.186409
0.186474
0.186538
0.186598
0.186653
0.186701
0.186739
0.186766
0.18678
0.189983
0.189992
0.190009
0.190034
0.190068
0.19011
0.190159
0.190214
0.190274
0.190337
0.190402
0.190467
0.190531
0.190592
0.190648
0.190698
0.190741
0.190774
0.190798
0.19081
0.19354
0.19355
0.193571
0.193601
0.19364
0.193688
0.193742
0.193802
0.193866
0.193932
0.193998
0.194063
0.194126
0.194185
0.194238
0.194285
0.194324
0.194354
0.194375
0.194386
0.1966
0.196611
0.196634
0.196668
0.196711
0.196762
0.196821
0.196885
0.196952
0.19702
0.197087
0.197153
0.197215
0.197272
0.197323
0.197368
0.197404
0.197433
0.197452
0.197462
0.199116
0.199129
0.199153
0.199189
0.199235
0.19929
0.199352
0.199418
0.199487
0.199557
0.199626
0.199692
0.199753
0.199809
0.199859
0.199902
0.199937
0.199963
0.199982
0.199991
0.201047
0.20106
0.201086
0.201123
0.201172
0.201229
0.201292
0.201361
0.201432
0.201503
0.201572
0.201638
0.2017
0.201755
0.201804
0.201845
0.201879
0.201904
0.201922
0.201931
0.202357
0.20237
0.202397
0.202435
0.202485
0.202543
0.202609
0.202678
0.20275
0.202822
0.202892
0.202958
0.203019
0.203074
0.203122
0.203163
0.203196
0.203221
0.203238
0.203246
0.203019
0.203033
0.20306
0.203099
0.203149
0.203208
0.203274
0.203345
0.203417
0.203489
0.203559
0.203626
0.203686
0.203741
0.203789
0.203829
0.203861
0.203886
0.203903
0.203911
0.127049
0.125845
0.124739
0.124111
0.123619
0.1233
0.123083
0.122889
0.122833
0.122807
0.12285
0.122868
0.122941
0.123166
0.123506
0.123913
0.124381
0.124998
0.126052
0.127321
0.125959
0.123015
0.121213
0.12086
0.120295
0.120078
0.11995
0.119573
0.119611
0.119549
0.119743
0.119656
0.119577
0.119829
0.120257
0.120747
0.121146
0.121482
0.123009
0.12633
0.12908
0.12604
0.124334
0.124101
0.123557
0.123257
0.123134
0.122842
0.122959
0.122889
0.12297
0.122882
0.122862
0.123168
0.123578
0.123917
0.12427
0.124637
0.126165
0.129316
0.136388
0.135018
0.134147
0.133833
0.133432
0.133057
0.132891
0.132818
0.132898
0.132865
0.132774
0.132784
0.132923
0.133208
0.133497
0.133659
0.133994
0.134519
0.135454
0.136572
0.143504
0.143045
0.142592
0.142279
0.142011
0.141799
0.141667
0.141594
0.141584
0.141583
0.141597
0.141651
0.141763
0.141942
0.142157
0.142386
0.142676
0.143048
0.143524
0.143954
0.150167
0.149981
0.149743
0.149531
0.149351
0.149212
0.149118
0.149066
0.149053
0.149066
0.149104
0.149171
0.149273
0.149415
0.149588
0.149786
0.150013
0.150267
0.15053
0.150723
0.15645
0.156363
0.156235
0.156105
0.155991
0.155902
0.155843
0.155813
0.155812
0.155836
0.155883
0.155952
0.156047
0.156167
0.156309
0.156467
0.156638
0.156813
0.15697
0.157071
0.16242
0.162377
0.162308
0.162233
0.162166
0.162116
0.162086
0.162077
0.16209
0.162123
0.162175
0.162244
0.162331
0.162435
0.162551
0.162677
0.162806
0.162929
0.163031
0.16309
0.168112
0.16809
0.168055
0.168017
0.167984
0.167963
0.167956
0.167966
0.167991
0.168032
0.168087
0.168156
0.168236
0.168327
0.168425
0.168526
0.168625
0.168714
0.168784
0.168823
0.173532
0.173523
0.173509
0.173495
0.173487
0.173487
0.173499
0.173523
0.17356
0.173608
0.173666
0.173733
0.173808
0.173889
0.173973
0.174056
0.174134
0.174201
0.174252
0.174279
0.17867
0.178669
0.178668
0.178671
0.17868
0.178697
0.178723
0.178759
0.178805
0.178859
0.17892
0.178987
0.179058
0.179131
0.179204
0.179274
0.179338
0.179391
0.17943
0.179451
0.183499
0.183503
0.183511
0.183525
0.183547
0.183577
0.183615
0.18366
0.183713
0.183772
0.183836
0.183903
0.183971
0.184039
0.184104
0.184165
0.184219
0.184263
0.184294
0.18431
0.187981
0.187988
0.188003
0.188026
0.188057
0.188096
0.188143
0.188196
0.188256
0.188319
0.188385
0.188452
0.188518
0.188582
0.188642
0.188696
0.188743
0.18878
0.188807
0.18882
0.19207
0.192079
0.192099
0.192128
0.192166
0.192213
0.192267
0.192326
0.192391
0.192458
0.192525
0.192593
0.192658
0.192719
0.192775
0.192825
0.192867
0.192899
0.192922
0.192934
0.195713
0.195724
0.195747
0.195781
0.195825
0.195877
0.195937
0.196002
0.19607
0.19614
0.19621
0.196277
0.196341
0.196401
0.196454
0.1965
0.196539
0.196569
0.196589
0.1966
0.198858
0.19887
0.198896
0.198933
0.198981
0.199038
0.199102
0.199171
0.199243
0.199315
0.199386
0.199454
0.199518
0.199576
0.199627
0.199671
0.199707
0.199734
0.199753
0.199763
0.201451
0.201464
0.201492
0.201532
0.201583
0.201643
0.201711
0.201783
0.201857
0.201931
0.202004
0.202072
0.202135
0.202192
0.202242
0.202284
0.202318
0.202344
0.202361
0.20237
0.203444
0.203459
0.203488
0.20353
0.203583
0.203646
0.203716
0.20379
0.203866
0.203942
0.204015
0.204084
0.204147
0.204203
0.204251
0.204292
0.204325
0.20435
0.204366
0.204375
0.204799
0.204814
0.204844
0.204887
0.204942
0.205006
0.205078
0.205154
0.205231
0.205307
0.205381
0.20545
0.205513
0.205568
0.205616
0.205656
0.205688
0.205712
0.205728
0.205736
0.205485
0.2055
0.20553
0.205574
0.20563
0.205695
0.205767
0.205844
0.205922
0.205999
0.206072
0.206141
0.206204
0.206259
0.206307
0.206346
0.206378
0.206401
0.206417
0.206425
0.133252
0.132587
0.131859
0.13134
0.130946
0.130672
0.130482
0.13034
0.130282
0.130269
0.130302
0.130349
0.130447
0.130642
0.130923
0.131268
0.131678
0.132203
0.132921
0.133614
0.133745
0.13269
0.131772
0.131289
0.130895
0.130644
0.130475
0.130311
0.130275
0.130261
0.130315
0.130339
0.130406
0.130606
0.130904
0.131252
0.131635
0.132122
0.132998
0.134124
0.136239
0.134866
0.133893
0.133534
0.133147
0.132897
0.132755
0.132592
0.132609
0.132586
0.132631
0.132634
0.132694
0.132916
0.133213
0.133513
0.133853
0.13427
0.135189
0.136608
0.141672
0.141018
0.140434
0.140089
0.139789
0.139557
0.139418
0.139335
0.139333
0.139328
0.139337
0.13938
0.139488
0.139682
0.139915
0.140154
0.140459
0.140869
0.141468
0.142089
0.147642
0.147351
0.147021
0.146759
0.146542
0.146374
0.146265
0.146206
0.146193
0.146202
0.146232
0.146294
0.1464
0.146557
0.146747
0.14696
0.147215
0.147522
0.147876
0.148163
0.15365
0.153514
0.153329
0.153156
0.153008
0.152894
0.152819
0.15278
0.152774
0.152793
0.152836
0.152905
0.153005
0.153137
0.153294
0.153472
0.153672
0.153889
0.154102
0.154248
0.159552
0.159484
0.159381
0.159275
0.159182
0.159111
0.159066
0.159047
0.159054
0.159083
0.159133
0.159204
0.159296
0.159409
0.159541
0.159685
0.159838
0.159991
0.160125
0.160208
0.165307
0.165273
0.165218
0.165158
0.165106
0.165068
0.165049
0.165049
0.165069
0.165107
0.165161
0.165232
0.165317
0.165416
0.165526
0.165643
0.165761
0.165871
0.16596
0.166012
0.170896
0.17088
0.170853
0.170825
0.170803
0.170791
0.170793
0.17081
0.170842
0.170888
0.170946
0.171015
0.171095
0.171183
0.171276
0.171372
0.171463
0.171545
0.171608
0.171643
0.176295
0.176289
0.176281
0.176274
0.176274
0.176283
0.176302
0.176333
0.176375
0.176428
0.176489
0.176558
0.176633
0.176713
0.176793
0.176873
0.176946
0.177009
0.177056
0.177081
0.181471
0.181472
0.181476
0.181485
0.1815
0.181525
0.181558
0.181601
0.181652
0.18171
0.181775
0.181844
0.181916
0.181988
0.18206
0.182127
0.182188
0.182239
0.182275
0.182294
0.186382
0.186387
0.1864
0.18642
0.186448
0.186484
0.186529
0.186581
0.18664
0.186704
0.186771
0.18684
0.18691
0.186978
0.187042
0.187101
0.187153
0.187195
0.187224
0.18724
0.190976
0.190985
0.191004
0.191032
0.191069
0.191116
0.191169
0.19123
0.191295
0.191363
0.191433
0.191503
0.191571
0.191635
0.191695
0.191748
0.191793
0.191829
0.191854
0.191867
0.195196
0.195207
0.195231
0.195265
0.19531
0.195364
0.195425
0.195492
0.195563
0.195635
0.195708
0.195778
0.195845
0.195907
0.195962
0.196011
0.196052
0.196083
0.196105
0.196116
0.198977
0.198991
0.199018
0.199057
0.199108
0.199168
0.199236
0.199309
0.199384
0.19946
0.199534
0.199605
0.199671
0.199731
0.199784
0.199829
0.199867
0.199895
0.199914
0.199924
0.202257
0.202272
0.202302
0.202345
0.202401
0.202466
0.202539
0.202616
0.202695
0.202773
0.202849
0.202921
0.202987
0.203045
0.203096
0.203139
0.203174
0.2032
0.203217
0.203226
0.204972
0.204988
0.20502
0.205067
0.205126
0.205195
0.205272
0.205352
0.205434
0.205515
0.205593
0.205665
0.20573
0.205788
0.205837
0.205878
0.20591
0.205935
0.205951
0.205959
0.207066
0.207083
0.207117
0.207165
0.207227
0.207299
0.207379
0.207462
0.207546
0.207629
0.207708
0.20778
0.207845
0.207902
0.20795
0.207989
0.20802
0.208043
0.208059
0.208066
0.208492
0.208509
0.208544
0.208594
0.208658
0.208732
0.208813
0.208898
0.208984
0.209068
0.209147
0.20922
0.209284
0.209341
0.209388
0.209426
0.209456
0.209478
0.209493
0.2095
0.209214
0.209232
0.209268
0.209319
0.209383
0.209458
0.20954
0.209626
0.209713
0.209797
0.209876
0.209949
0.210014
0.21007
0.210117
0.210155
0.210184
0.210206
0.21022
0.210227
0.140153
0.139816
0.139386
0.139017
0.138724
0.138509
0.138357
0.138256
0.138211
0.138207
0.138241
0.138304
0.138411
0.13858
0.138808
0.139088
0.139417
0.139808
0.14025
0.140602
0.141127
0.140709
0.140235
0.139875
0.13959
0.139385
0.139243
0.139144
0.139106
0.139105
0.139142
0.1392
0.1393
0.139468
0.139696
0.139969
0.140285
0.140668
0.141149
0.141588
0.143565
0.143109
0.142644
0.142324
0.142063
0.141873
0.141747
0.141659
0.141637
0.141639
0.141675
0.14173
0.141827
0.141994
0.142211
0.142461
0.142751
0.143104
0.143577
0.144048
0.147671
0.14738
0.147047
0.146785
0.146569
0.146406
0.146299
0.146237
0.146222
0.146231
0.146265
0.146327
0.146431
0.146585
0.146776
0.146992
0.147247
0.14755
0.147904
0.148199
0.152629
0.152468
0.152255
0.152064
0.151903
0.151779
0.151698
0.151655
0.151648
0.151666
0.151707
0.151776
0.151877
0.152013
0.152177
0.152363
0.152574
0.152809
0.153048
0.153219
0.15797
0.157883
0.157755
0.157628
0.157517
0.157433
0.157379
0.157355
0.157359
0.157386
0.157434
0.157505
0.1576
0.15772
0.15786
0.158016
0.158184
0.158358
0.158516
0.158618
0.163464
0.163417
0.163343
0.163266
0.163198
0.163147
0.163119
0.163113
0.163129
0.163165
0.163218
0.16329
0.163379
0.163485
0.163604
0.163733
0.163865
0.163993
0.1641
0.164164
0.168993
0.168969
0.16893
0.168889
0.168854
0.168832
0.168826
0.168837
0.168865
0.168909
0.168967
0.169038
0.169122
0.169216
0.169318
0.169424
0.169528
0.169623
0.169698
0.169741
0.174487
0.174477
0.174461
0.174445
0.174435
0.174436
0.174449
0.174476
0.174515
0.174566
0.174628
0.174699
0.174778
0.174863
0.174951
0.175039
0.175122
0.175195
0.17525
0.17528
0.179889
0.179887
0.179886
0.179889
0.179898
0.179917
0.179947
0.179986
0.180036
0.180094
0.180159
0.180231
0.180306
0.180383
0.180461
0.180535
0.180603
0.180661
0.180703
0.180725
0.18514
0.185145
0.185154
0.185171
0.185195
0.185229
0.185272
0.185323
0.185381
0.185446
0.185515
0.185586
0.185659
0.185731
0.1858
0.185865
0.185922
0.185968
0.186002
0.186019
0.190182
0.19019
0.190208
0.190235
0.190271
0.190317
0.190371
0.190432
0.190498
0.190568
0.19064
0.190713
0.190783
0.190851
0.190915
0.190971
0.19102
0.191059
0.191087
0.191101
0.194944
0.194956
0.19498
0.195015
0.195061
0.195117
0.19518
0.19525
0.195323
0.195399
0.195474
0.195547
0.195617
0.195681
0.19574
0.195791
0.195834
0.195868
0.195891
0.195903
0.199355
0.19937
0.199399
0.199441
0.199495
0.199559
0.19963
0.199707
0.199787
0.199867
0.199945
0.200019
0.200088
0.20015
0.200205
0.200252
0.20029
0.20032
0.20034
0.20035
0.203337
0.203354
0.203387
0.203435
0.203495
0.203566
0.203645
0.203728
0.203813
0.203897
0.203977
0.204053
0.204121
0.204182
0.204234
0.204277
0.204312
0.204338
0.204355
0.204364
0.206811
0.20683
0.206866
0.206918
0.206985
0.207062
0.207146
0.207235
0.207324
0.207411
0.207494
0.20757
0.207638
0.207697
0.207747
0.207788
0.20782
0.207843
0.207858
0.207866
0.209702
0.209722
0.209761
0.209817
0.209888
0.209969
0.210059
0.210152
0.210245
0.210335
0.210419
0.210496
0.210563
0.210621
0.210669
0.210708
0.210737
0.210758
0.210772
0.210779
0.21194
0.211961
0.212002
0.212061
0.212135
0.212221
0.212313
0.21241
0.212505
0.212597
0.212683
0.21276
0.212828
0.212885
0.212931
0.212968
0.212996
0.213015
0.213028
0.213034
0.213468
0.21349
0.213532
0.213593
0.21367
0.213758
0.213853
0.213951
0.214049
0.214142
0.214229
0.214306
0.214373
0.21443
0.214475
0.214511
0.214537
0.214556
0.214567
0.214573
0.214245
0.214267
0.21431
0.214371
0.214449
0.214538
0.214634
0.214734
0.214832
0.214926
0.215013
0.215091
0.215158
0.215214
0.215259
0.215294
0.215319
0.215337
0.215349
0.215354
0.146964
0.146792
0.146545
0.146305
0.146102
0.145946
0.145836
0.145767
0.145739
0.145746
0.145785
0.145854
0.145958
0.146103
0.146289
0.146509
0.14676
0.147033
0.147302
0.147487
0.14802
0.147833
0.147581
0.147347
0.147152
0.147004
0.1469
0.146836
0.146812
0.146822
0.146862
0.14693
0.147031
0.147175
0.147357
0.147571
0.147813
0.148081
0.148355
0.148556
0.150267
0.150083
0.149846
0.149635
0.149459
0.149325
0.149233
0.149179
0.149163
0.149177
0.149219
0.149286
0.149386
0.149525
0.149698
0.149898
0.150123
0.150372
0.150632
0.150829
0.153704
0.153568
0.153383
0.153211
0.153065
0.152953
0.152879
0.152839
0.152833
0.152852
0.152896
0.152965
0.153064
0.153194
0.153352
0.153531
0.15373
0.153945
0.154156
0.154305
0.157993
0.157905
0.157778
0.157651
0.157541
0.157457
0.157404
0.15738
0.157383
0.15741
0.157459
0.157529
0.157625
0.157744
0.157884
0.15804
0.158208
0.158381
0.158539
0.158641
0.162825
0.162772
0.162691
0.162606
0.162533
0.162478
0.162446
0.162438
0.162453
0.162487
0.162541
0.162613
0.162703
0.162811
0.162934
0.163067
0.163205
0.163339
0.163454
0.163523
0.167988
0.167959
0.167911
0.167861
0.167819
0.167791
0.16778
0.167788
0.167814
0.167857
0.167915
0.167987
0.168073
0.168171
0.168277
0.168389
0.168501
0.168605
0.168688
0.168736
0.173342
0.173328
0.173305
0.173281
0.173265
0.17326
0.173269
0.173292
0.173329
0.17338
0.173442
0.173514
0.173596
0.173685
0.173778
0.173872
0.173963
0.174043
0.174105
0.17414
0.178787
0.178783
0.178777
0.178774
0.178779
0.178793
0.178819
0.178856
0.178905
0.178963
0.179029
0.179102
0.17918
0.179261
0.179344
0.179424
0.179498
0.179562
0.179609
0.179634
0.184241
0.184243
0.18425
0.184263
0.184285
0.184316
0.184356
0.184406
0.184465
0.18453
0.1846
0.184674
0.184749
0.184825
0.184898
0.184968
0.18503
0.185081
0.185118
0.185137
0.189625
0.189633
0.189649
0.189675
0.189711
0.189755
0.189809
0.189871
0.189938
0.19001
0.190084
0.190159
0.190233
0.190304
0.19037
0.190431
0.190484
0.190526
0.190556
0.190571
0.194861
0.194873
0.194897
0.194933
0.19498
0.195037
0.195103
0.195174
0.19525
0.195328
0.195406
0.195482
0.195555
0.195622
0.195684
0.195738
0.195783
0.195819
0.195843
0.195856
0.199863