# vtk DataFile Version 2.0
Pressure 3D1D coupled problem
ASCII
DATASET UNSTRUCTURED_GRID
POINTS 9261 float
0 0 0
0 0 0.1
0 0 0.2
0 0 0.3
0 0 0.4
0 0 0.5
0 0 0.6
0 0 0.7
0 0 0.8
0 0 0.9
0 0 1
0 0 1.1
0 0 1.2
0 0 1.3
0 0 1.4
0 0 1.5
0 0 1.6
0 0 1.7
0 0 1.8
0 0 1.9
0 0 2
0 0.1 0
0 0.1 0.1
0 0.1 0.2
0 0.1 0.3
0 0.1 0.4
0 0.1 0.5
0 0.1 0.6
0 0.1 0.7
0 0.1 0.8
0 0.1 0.9
0 0.1 1
0 0.1 1.1
0 0.1 1.2
0 0.1 1.3
0 0.1 1.4
0 0.1 1.5
0 0.1 1.6
0 0.1 1.7
0 0.1 1.8
0 0.1 1.9
0 0.1 2
0 0.2 0
0 0.2 0.1
0 0.2 0.2
0 0.2 0.3
0 0.2 0.4
0 0.2 0.5
0 0.2 0.6
0 0.2 0.7
0 0.2 0.8
0 0.2 0.9
0 0.2 1
0 0.2 1.1
0 0.2 1.2
0 0.2 1.3
0 0.2 1.4
0 0.2 1.5
0 0.2 1.6
0 0.2 1.7
0 0.2 1.8
0 0.2 1.9
0 0.2 2
0 0.3 0
0 0.3 0.1
0 0.3 0.2
0 0.3 0.3
0 0.3 0.4
0 0.3 0.5
0 0.3 0.6
0 0.3 0.7
0 0.3 0.8
0 0.3 0.9
0 0.3 1
0 0.3 1.1
0 0.3 1.2
0 0.3 1.3
0 0.3 1.4
0 0.3 1.5
0 0.3 1.6
0 0.3 1.7
0 0.3 1.8
0 0.3 1.9
0 0.3 2
0 0.4 0
0 0.4 0.1
0 0.4 0.2
0 0.4 0.3
0 0.4 0.4
0 0.4 0.5
0 0.4 0.6
0 0.4 0.7
0 0.4 0.8
0 0.4 0.9
0 0.4 1
0 0.4 1.1
0 0.4 1.2
0 0.4 1.3
0 0.4 1.4
0 0.4 1.5
0 0.4 1.6
0 0.4 1.7
0 0.4 1.8
0 0.4 1.9
0 0.4 2
0 0.5 0
0 0.5 0.1
0 0.5 0.2
0 0.5 0.3
0 0.5 0.4
0 0.5 0.5
0 0.5 0.6
0 0.5 0.7
0 0.5 0.8
0 0.5 0.9
0 0.5 1
0 0.5 1.1
0 0.5 1.2
0 0.5 1.3
0 0.5 1.4
0 0.5 1.5
0 0.5 1.6
0 0.5 1.7
0 0.5 1.8
0 0.5 1.9
0 0.5 2
0 0.6 0
0 0.6 0.1
0 0.6 0.2
0 0.6 0.3
0 0.6 0.4
0 0.6 0.5
0 0.6 0.6
0 0.6 0.7
0 0.6 0.8
0 0.6 0.9
0 0.6 1
0 0.6 1.1
0 0.6 1.2
0 0.6 1.3
0 0.6 1.4
0 0.6 1.5
0 0.6 1.6
0 0.6 1.7
0 0.6 1.8
0 0.6 1.9
0 0.6 2
0 0.7 0
0 0.7 0.1
0 0.7 0.2
0 0.7 0.3
0 0.7 0.4
0 0.7 0.5
0 0.7 0.6
0 0.7 0.7
0 0.7 0.8
0 0.7 0.9
0 0.7 1
0 0.7 1.1
0 0.7 1.2
0 0.7 1.3
0 0.7 1.4
0 0.7 1.5
0 0.7 1.6
0 0.7 1.7
0 0.7 1.8
0 0.7 1.9
0 0.7 2
0 0.8 0
0 0.8 0.1
0 0.8 0.2
0 0.8 0.3
0 0.8 0.4
0 0.8 0.5
0 0.8 0.6
0 0.8 0.7
0 0.8 0.8
0 0.8 0.9
0 0.8 1
0 0.8 1.1
0 0.8 1.2
0 0.8 1.3
0 0.8 1.4
0 0.8 1.5
0 0.8 1.6
0 0.8 1.7
0 0.8 1.8
0 0.8 1.9
0 0.8 2
0 0.9 0
0 0.9 0.1
0 0.9 0.2
0 0.9 0.3
0 0.9 0.4
0 0.9 0.5
0 0.9 0.6
0 0.9 0.7
0 0.9 0.8
0 0.9 0.9
0 0.9 1
0 0.9 1.1
0 0.9 1.2
0 0.9 1.3
0 0.9 1.4
0 0.9 1.5
0 0.9 1.6
0 0.9 1.7
0 0.9 1.8
0 0.9 1.9
0 0.9 2
0 1 0
0 1 0.1
0 1 0.2
0 1 0.3
0 1 0.4
0 1 0.5
0 1 0.6
0 1 0.7
0 1 0.8
0 1 0.9
0 1 1
0 1 1.1
0 1 1.2
0 1 1.3
0 1 1.4
0 1 1.5
0 1 1.6
0 1 1.7
0 1 1.8
0 1 1.9
0 1 2
0 1.1 0
0 1.1 0.1
0 1.1 0.2
0 1.1 0.3
0 1.1 0.4
0 1.1 0.5
0 1.1 0.6
0 1.1 0.7
0 1.1 0.8
0 1.1 0.9
0 1.1 1
0 1.1 1.1
0 1.1 1.2
0 1.1 1.3
0 1.1 1.4
0 1.1 1.5
0 1.1 1.6
0 1.1 1.7
0 1.1 1.8
0 1.1 1.9
0 1.1 2
0 1.2 0
0 1.2 0.1
0 1.2 0.2
0 1.2 0.3
0 1.2 0.4
0 1.2 0.5
0 1.2 0.6
0 1.2 0.7
0 1.2 0.8
0 1.2 0.9
0 1.2 1
0 1.2 1.1
0 1.2 1.2
0 1.2 1.3
0 1.2 1.4
0 1.2 1.5
0 1.2 1.6
0 1.2 1.7
0 1.2 1.8
0 1.2 1.9
0 1.2 2
0 1.3 0
0 1.3 0.1
0 1.3 0.2
0 1.3 0.3
0 1.3 0.4
0 1.3 0.5
0 1.3 0.6
0 1.3 0.7
0 1.3 0.8
0 1.3 0.9
0 1.3 1
0 1.3 1.1
0 1.3 1.2
0 1.3 1.3
0 1.3 1.4
0 1.3 1.5
0 1.3 1.6
0 1.3 1.7
0 1.3 1.8
0 1.3 1.9
0 1.3 2
0 1.4 0
0 1.4 0.1
0 1.4 0.2
0 1.4 0.3
0 1.4 0.4
0 1.4 0.5
0 1.4 0.6
0 1.4 0.7
0 1.4 0.8
0 1.4 0.9
0 1.4 1
0 1.4 1.1
0 1.4 1.2
0 1.4 1.3
0 1.4 1.4
0 1.4 1.5
0 1.4 1.6
0 1.4 1.7
0 1.4 1.8
0 1.4 1.9
0 1.4 2
0 1.5 0
0 1.5 0.1
0 1.5 0.2
0 1.5 0.3
0 1.5 0.4
0 1.5 0.5
0 1.5 0.6
0 1.5 0.7
0 1.5 0.8
0 1.5 0.9
0 1.5 1
0 1.5 1.1
0 1.5 1.2
0 1.5 1.3
0 1.5 1.4
0 1.5 1.5
0 1.5 1.6
0 1.5 1.7
0 1.5 1.8
0 1.5 1.9
0 1.5 2
0 1.6 0
0 1.6 0.1
0 1.6 0.2
0 1.6 0.3
0 1.6 0.4
0 1.6 0.5
0 1.6 0.6
0 1.6 0.7
0 1.6 0.8
0 1.6 0.9
0 1.6 1
0 1.6 1.1
0 1.6 1.2
0 1.6 1.3
0 1.6 1.4
0 1.6 1.5
0 1.6 1.6
0 1.6 1.7
0 1.6 1.8
0 1.6 1.9
0 1.6 2
0 1.7 0
0 1.7 0.1
0 1.7 0.2
0 1.7 0.3
0 1.7 0.4
0 1.7 0.5
0 1.7 0.6
0 1.7 0.7
0 1.7 0.8
0 1.7 0.9
0 1.7 1
0 1.7 1.1
0 1.7 1.2
0 1.7 1.3
0 1.7 1.4
0 1.7 1.5
0 1.7 1.6
0 1.7 1.7
0 1.7 1.8
0 1.7 1.9
0 1.7 2
0 1.8 0
0 1.8 0.1
0 1.8 0.2
0 1.8 0.3
0 1.8 0.4
0 1.8 0.5
0 1.8 0.6
0 1.8 0.7
0 1.8 0.8
0 1.8 0.9
0 1.8 1
0 1.8 1.1
0 1.8 1.2
0 1.8 1.3
0 1.8 1.4
0 1.8 1.5
0 1.8 1.6
0 1.8 1.7
0 1.8 1.8
0 1.8 1.9
0 1.8 2
0 1.9 0
0 1.9 0.1
0 1.9 0.2
0 1.9 0.3
0 1.9 0.4
0 1.9 0.5
0 1.9 0.6
0 1.9 0.7
0 1.9 0.8
0 1.9 0.9
0 1.9 1
0 1.9 1.1
0 1.9 1.2
0 1.9 1.3
0 1.9 1.4
0 1.9 1.5
0 1.9 1.6
0 1.9 1.7
0 1.9 1.8
0 1.9 1.9
0 1.9 2
0 2 0
0 2 0.1
0 2 0.2
0 2 0.3
0 2 0.4
0 2 0.5
0 2 0.6
0 2 0.7
0 2 0.8
0 2 0.9
0 2 1
0 2 1.1
0 2 1.2
0 2 1.3
0 2 1.4
0 2 1.5
0 2 1.6
0 2 1.7
0 2 1.8
0 2 1.9
0 2 2
0.1 0 0
0.1 0 0.1
0.1 0 0.2
0.1 0 0.3
0.1 0 0.4
0.1 0 0.5
0.1 0 0.6
0.1 0 0.7
0.1 0 0.8
0.1 0 0.9
0.1 0 1
0.1 0 1.1
0.1 0 1.2
0.1 0 1.3
0.1 0 1.4
0.1 0 1.5
0.1 0 1.6
0.1 0 1.7
0.1 0 1.8
0.1 0 1.9
0.1 0 2
0.1 0.1 0
0.1 0.1 0.1
0.1 0.1 0.2
0.1 0.1 0.3
0.1 0.1 0.4
0.1 0.1 0.5
0.1 0.1 0.6
0.1 0.1 0.7
0.1 0.1 0.8
0.1 0.1 0.9
0.1 0.1 1
0.1 0.1 1.1
0.1 0.1 1.2
0.1 0.1 1.3
0.1 0.1 1.4
0.1 0.1 1.5
0.1 0.1 1.6
0.1 0.1 1.7
0.1 0.1 1.8
0.1 0.1 1.9
0.1 0.1 2
0.1 0.2 0
0.1 0.2 0.1
0.1 0.2 0.2
0.1 0.2 0.3
0.1 0.2 0.4
0.1 0.2 0.5
0.1 0.2 0.6
0.1 0.2 0.7
0.1 0.2 0.8
0.1 0.2 0.9
0.1 0.2 1
0.1 0.2 1.1
0.1 0.2 1.2
0.1 0.2 1.3
0.1 0.2 1.4
0.1 0.2 1.5
0.1 0.2 1.6
0.1 0.2 1.7
0.1 0.2 1.8
0.1 0.2 1.9
0.1 0.2 2
0.1 0.3 0
0.1 0.3 0.1
0.1 0.3 0.2
0.1 0.3 0.3
0.1 0.3 0.4
0.1 0.3 0.5
0.1 0.3 0.6
0.1 0.3 0.7
0.1 0.3 0.8
0.1 0.3 0.9
0.1 0.3 1
0.1 0.3 1.1
0.1 0.3 1.2
0.1 0.3 1.3
0.1 0.3 1.4
0.1 0.3 1.5
0.1 0.3 1.6
0.1 0.3 1.7
0.1 0.3 1.8
0.1 0.3 1.9
0.1 0.3 2
0.1 0.4 0
0.1 0.4 0.1
0.1 0.4 0.2
0.1 0.4 0.3
0.1 0.4 0.4
0.1 0.4 0.5
0.1 0.4 0.6
0.1 0.4 0.7
0.1 0.4 0.8
0.1 0.4 0.9
0.1 0.4 1
0.1 0.4 1.1
0.1 0.4 1.2
0.1 0.4 1.3
0.1 0.4 1.4
0.1 0.4 1.5
0.1 0.4 1.6
0.1 0.4 1.7
0.1 0.4 1.8
0.1 0.4 1.9
0.1 0.4 2
0.1 0.5 0
0.1 0.5 0.1
0.1 0.5 0.2
0.1 0.5 0.3
0.1 0.5 0.4
0.1 0.5 0.5
0.1 0.5 0.6
0.1 0.5 0.7
0.1 0.5 0.8
0.1 0.5 0.9
0.1 0.5 1
0.1 0.5 1.1
0.1 0.5 1.2
0.1 0.5 1.3
0.1 0.5 1.4
0.1 0.5 1.5
0.1 0.5 1.6
0.1 0.5 1.7
0.1 0.5 1.8
0.1 0.5 1.9
0.1 0.5 2
0.1 0.6 0
0.1 0.6 0.1
0.1 0.6 0.2
0.1 0.6 0.3
0.1 0.6 0.4
0.1 0.6 0.5
0.1 0.6 0.6
0.1 0.6 0.7
0.1 0.6 0.8
0.1 0.6 0.9
0.1 0.6 1
0.1 0.6 1.1
0.1 0.6 1.2
0.1 0.6 1.3
0.1 0.6 1.4
0.1 0.6 1.5
0.1 0.6 1.6
0.1 0.6 1.7
0.1 0.6 1.8
0.1 0.6 1.9
0.1 0.6 2
0.1 0.7 0
0.1 0.7 0.1
0.1 0.7 0.2
0.1 0.7 0.3
0.1 0.7 0.4
0.1 0.7 0.5
0.1 0.7 0.6
0.1 0.7 0.7
0.1 0.7 0.8
0.1 0.7 0.9
0.1 0.7 1
0.1 0.7 1.1
0.1 0.7 1.2
0.1 0.7 1.3
0.1 0.7 1.4
0.1 0.7 1.5
0.1 0.7 1.6
0.1 0.7 1.7
0.1 0.7 1.8
0.1 0.7 1.9
0.1 0.7 2
0.1 0.8 0
0.1 0.8 0.1
0.1 0.8 0.2
0.1 0.8 0.3
0.1 0.8 0.4
0.1 0.8 0.5
0.1 0.8 0.6
0.1 0.8 0.7
0.1 0.8 0.8
0.1 0.8 0.9
0.1 0.8 1
0.1 0.8 1.1
0.1 0.8 1.2
0.1 0.8 1.3
0.1 0.8 1.4
0.1 0.8 1.5
0.1 0.8 1.6
0.1 0.8 1.7
0.1 0.8 1.8
0.1 0.8 1.9
0.1 0.8 2
0.1 0.9 0
0.1 0.9 0.1
0.1 0.9 0.2
0.1 0.9 0.3
0.1 0.9 0.4
0.1 0.9 0.5
0.1 0.9 0.6
0.1 0.9 0.7
0.1 0.9 0.8
0.1 0.9 0.9
0.1 0.9 1
0.1 0.9 1.1
0.1 0.9 1.2
0.1 0.9 1.3
0.1 0.9 1.4
0.1 0.9 1.5
0.1 0.9 1.6
0.1 0.9 1.7
0.1 0.9 1.8
0.1 0.9 1.9
0.1 0.9 2
0.1 1 0
0.1 1 0.1
0.1 1 0.2
0.1 1 0.3
0.1 1 0.4
0.1 1 0.5
0.1 1 0.6
0.1 1 0.7
0.1 1 0.8
0.1 1 0.9
0.1 1 1
0.1 1 1.1
0.1 1 1.2
0.1 1 1.3
0.1 1 1.4
0.1 1 1.5
0.1 1 1.6
0.1 1 1.7
0.1 1 1.8
0.1 1 1.9
0.1 1 2
0.1 1.1 0
0.1 1.1 0.1
0.1 1.1 0.2
0.1 1.1 0.3
0.1 1.1 0.4
0.1 1.1 0.5
0.1 1.1 0.6
0.1 1.1 0.7
0.1 1.1 0.8
0.1 1.1 0.9
0.1 1.1 1
0.1 1.1 1.1
0.1 1.1 1.2
0.1 1.1 1.3
0.1 1.1 1.4
0.1 1.1 1.5
0.1 1.1 1.6
0.1 1.1 1.7
0.1 1.1 1.8
0.1 1.1 1.9
0.1 1.1 2
0.1 1.2 0
0.1 1.2 0.1
0.1 1.2 0.2
0.1 1.2 0.3
0.1 1.2 0.4
0.1 1.2 0.5
0.1 1.2 0.6
0.1 1.2 0.7
0.1 1.2 0.8
0.1 1.2 0.9
0.1 1.2 1
0.1 1.2 1.1
0.1 1.2 1.2
0.1 1.2 1.3
0.1 1.2 1.4
0.1 1.2 1.5
0.1 1.2 1.6
0.1 1.2 1.7
0.1 1.2 1.8
0.1 1.2 1.9
0.1 1.2 2
0.1 1.3 0
0.1 1.3 0.1
0.1 1.3 0.2
0.1 1.3 0.3
0.1 1.3 0.4
0.1 1.3 0.5
0.1 1.3 0.6
0.1 1.3 0.7
0.1 1.3 0.8
0.1 1.3 0.9
0.1 1.3 1
0.1 1.3 1.1
0.1 1.3 1.2
0.1 1.3 1.3
0.1 1.3 1.4
0.1 1.3 1.5
0.1 1.3 1.6
0.1 1.3 1.7
0.1 1.3 1.8
0.1 1.3 1.9
0.1 1.3 2
0.1 1.4 0
0.1 1.4 0.1
0.1 1.4 0.2
0.1 1.4 0.3
0.1 1.4 0.4
0.1 1.4 0.5
0.1 1.4 0.6
0.1 1.4 0.7
0.1 1.4 0.8
0.1 1.4 0.9
0.1 1.4 1
0.1 1.4 1.1
0.1 1.4 1.2
0.1 1.4 1.3
0.1 1.4 1.4
0.1 1.4 1.5
0.1 1.4 1.6
0.1 1.4 1.7
0.1 1.4 1.8
0.1 1.4 1.9
0.1 1.4 2
0.1 1.5 0
0.1 1.5 0.1
0.1 1.5 0.2
0.1 1.5 0.3
0.1 1.5 0.4
0.1 1.5 0.5
0.1 1.5 0.6
0.1 1.5 0.7
0.1 1.5 0.8
0.1 1.5 0.9
0.1 1.5 1
0.1 1.5 1.1
0.1 1.5 1.2
0.1 1.5 1.3
0.1 1.5 1.4
0.1 1.5 1.5
0.1 1.5 1.6
0.1 1.5 1.7
0.1 1.5 1.8
0.1 1.5 1.9
0.1 1.5 2
0.1 1.6 0
0.1 1.6 0.1
0.1 1.6 0.2
0.1 1.6 0.3
0.1 1.6 0.4
0.1 1.6 0.5
0.1 1.6 0.6
0.1 1.6 0.7
0.1 1.6 0.8
0.1 1.6 0.9
0.1 1.6 1
0.1 1.6 1.1
0.1 1.6 1.2
0.1 1.6 1.3
0.1 1.6 1.4
0.1 1.6 1.5
0.1 1.6 1.6
0.1 1.6 1.7
0.1 1.6 1.8
0.1 1.6 1.9
0.1 1.6 2
0.1 1.7 0
0.1 1.7 0.1
0.1 1.7 0.2
0.1 1.7 0.3
0.1 1.7 0.4
0.1 1.7 0.5
0.1 1.7 0.6
0.1 1.7 0.7
0.1 1.7 0.8
0.1 1.7 0.9
0.1 1.7 1
0.1 1.7 1.1
0.1 1.7 1.2
0.1 1.7 1.3
0.1 1.7 1.4
0.1 1.7 1.5
0.1 1.7 1.6
0.1 1.7 1.7
0.1 1.7 1.8
0.1 1.7 1.9
0.1 1.7 2
0.1 1.8 0
0.1 1.8 0.1
0.1 1.8 0.2
0.1 1.8 0.3
0.1 1.8 0.4
0.1 1.8 0.5
0.1 1.8 0.6
0.1 1.8 0.7
0.1 1.8 0.8
0.1 1.8 0.9
0.1 1.8 1
0.1 1.8 1.1
0.1 1.8 1.2
0.1 1.8 1.3
0.1 1.8 1.4
0.1 1.8 1.5
0.1 1.8 1.6
0.1 1.8 1.7
0.1 1.8 1.8
0.1 1.8 1.9
0.1 1.8 2
0.1 1.9 0
0.1 1.9 0.1
0.1 1.9 0.2
0.1 1.9 0.3
0.1 1.9 0.4
0.1 1.9 0.5
0.1 1.9 0.6
0.1 1.9 0.7
0.1 1.9 0.8
0.1 1.9 0.9
0.1 1.9 1
0.1 1.9 1.1
0.1 1.9 1.2
0.1 1.9 1.3
0.1 1.9 1.4
0.1 1.9 1.5
0.1 1.9 1.6
0.1 1.9 1.7
0.1 1.9 1.8
0.1 1.9 1.9
0.1 1.9 2
0.1 2 0
0.1 2 0.1
0.1 2 0.2
0.1 2 0.3
0.1 2 0.4
0.1 2 0.5
0.1 2 0.6
0.1 2 0.7
0.1 2 0.8
0.1 2 0.9
0.1 2 1
0.1 2 1.1
0.1 2 1.2
0.1 2 1.3
0.1 2 1.4
0.1 2 1.5
0.1 2 1.6
0.1 2 1.7
0.1 2 1.8
0.1 2 1.9
0.1 2 2
0.2 0 0
0.2 0 0.1
0.2 0 0.2
0.2 0 0.3
0.2 0 0.4
0.2 0 0.5
0.2 0 0.6
0.2 0 0.7
0.2 0 0.8
0.2 0 0.9
0.2 0 1
0.2 0 1.1
0.2 0 1.2
0.2 0 1.3
0.2 0 1.4
0.2 0 1.5
0.2 0 1.6
0.2 0 1.7
0.2 0 1.8
0.2 0 1.9
0.2 0 2
0.2 0.1 0
0.2 0.1 0.1
0.2 0.1 0.2
0.2 0.1 0.3
0.2 0.1 0.4
0.2 0.1 0.5
0.2 0.1 0.6
0.2 0.1 0.7
0.2 0.1 0.8
0.2 0.1 0.9
0.2 0.1 1
0.2 0.1 1.1
0.2 0.1 1.2
0.2 0.1 1.3
0.2 0.1 1.4
0.2 0.1 1.5
0.2 0.1 1.6
0.2 0.1 1.7
0.2 0.1 1.8
0.2 0.1 1.9
0.2 0.1 2
0.2 0.2 0
0.2 0.2 0.1
0.2 0.2 0.2
0.2 0.2 0.3
0.2 0.2 0.4
0.2 0.2 0.5
0.2 0.2 0.6
0.2 0.2 0.7
0.2 0.2 0.8
0.2 0.2 0.9
0.2 0.2 1
0.2 0.2 1.1
0.2 0.2 1.2
0.2 0.2 1.3
0.2 0.2 1.4
0.2 0.2 1.5
0.2 0.2 1.6
0.2 0.2 1.7
0.2 0.2 1.8
0.2 0.2 1.9
[...]
CELL_DATA 8000
SCALARS Phi_sigma_(3D) float 1
LOOKUP_TABLE default
0.127438
0.126506
0.125483
0.124737
0.124159
0.123738
0.123458
0.123275
0.1232
0.123159
0.123154
0.123191
0.123319
0.123577
0.123932
0.124361
0.124917
0.125672
0.126675
0.127585
0.12808
0.126718
0.125505
0.124812
0.124237
0.123819
0.12356
0.123374
0.123338
0.123294
0.123284
0.123296
0.123406
0.123682
0.12405
0.12445
0.124972
0.125705
0.126886
0.128211
0.13138
0.130054
0.128883
0.128244
0.127726
0.127374
0.127148
0.126958
0.126918
0.126887
0.12691
0.126924
0.127009
0.127256
0.127608
0.128007
0.128487
0.129143
0.130268
0.131618
0.137625
0.136891
0.136089
0.135533
0.135124
0.134859
0.134667
0.134505
0.134434
0.134423
0.134479
0.134525
0.134611
0.134802
0.135099
0.135479
0.135908
0.136443
0.137218
0.138024
0.144758
0.144389
0.143918
0.143523
0.143218
0.143003
0.142847
0.142735
0.142683
0.142681
0.142725
0.14279
0.142894
0.143063
0.143304
0.143604
0.143951
0.144358
0.144835
0.145236
0.151788
0.151601
0.151334
0.151078
0.150866
0.150705
0.150591
0.150517
0.150486
0.150494
0.150537
0.150609
0.150714
0.150863
0.151057
0.151291
0.151554
0.151842
0.15213
0.152335
0.158457
0.158359
0.158209
0.158051
0.157912
0.157804
0.157728
0.157684
0.157672
0.157691
0.157738
0.15781
0.157909
0.158038
0.158195
0.158376
0.158571
0.15877
0.158949
0.159062
0.164729
0.164678
0.164594
0.164501
0.164417
0.164351
0.164308
0.164288
0.164294
0.164322
0.164372
0.164443
0.164535
0.164646
0.164774
0.164914
0.16506
0.165199
0.165315
0.165383
0.170624
0.170597
0.170552
0.170502
0.170456
0.170423
0.170406
0.170407
0.170427
0.170464
0.170517
0.170587
0.17067
0.170767
0.170872
0.170984
0.171094
0.171194
0.171273
0.171317
0.176158
0.176146
0.176125
0.176102
0.176084
0.176076
0.176079
0.176097
0.176128
0.176172
0.176229
0.176296
0.176374
0.176458
0.176548
0.176638
0.176723
0.176798
0.176855
0.176885
0.181338
0.181334
0.181328
0.181325
0.181326
0.181336
0.181355
0.181385
0.181426
0.181476
0.181535
0.181602
0.181674
0.18175
0.181827
0.181903
0.181971
0.18203
0.182072
0.182095
0.186153
0.186154
0.186159
0.186168
0.186183
0.186206
0.186237
0.186277
0.186325
0.186381
0.186442
0.186508
0.186577
0.186647
0.186715
0.18678
0.186838
0.186885
0.186919
0.186937
0.190579
0.190585
0.190596
0.190614
0.190639
0.190672
0.190712
0.19076
0.190814
0.190874
0.190937
0.191003
0.191069
0.191135
0.191197
0.191254
0.191304
0.191344
0.191373
0.191387
0.194585
0.194593
0.194609
0.194633
0.194665
0.194705
0.194753
0.194807
0.194866
0.194929
0.194994
0.19506
0.195124
0.195187
0.195245
0.195297
0.195341
0.195377
0.195401
0.195414
0.198131
0.19814
0.198159
0.198188
0.198225
0.198271
0.198324
0.198383
0.198445
0.198511
0.198578
0.198643
0.198707
0.198767
0.198822
0.198871
0.198912
0.198944
0.198966
0.198977
0.201173
0.201184
0.201205
0.201237
0.201279
0.201329
0.201385
0.201448
0.201513
0.201581
0.201649
0.201715
0.201778
0.201837
0.201889
0.201936
0.201974
0.202004
0.202024
0.202035
0.20367
0.203682
0.203705
0.203739
0.203784
0.203837
0.203897
0.203961
0.20403
0.204099
0.204167
0.204234
0.204296
0.204354
0.204405
0.204449
0.204486
0.204514
0.204534
0.204543
0.205583
0.205596
0.20562
0.205656
0.205703
0.205758
0.20582
0.205886
0.205956
0.206026
0.206096
0.206162
0.206224
0.206281
0.206331
0.206375
0.20641
0.206437
0.206456
0.206465
0.20688
0.206893
0.206918
0.206955
0.207003
0.207059
0.207122
0.20719
0.207261
0.207332
0.207402
0.207468
0.20753
0.207586
0.207636
0.207678
0.207713
0.20774
0.207758
0.207767
0.207536
0.207549
0.207574
0.207612
0.20766
0.207717
0.207781
0.207849
0.20792
0.207992
0.208062
0.208128
0.20819
0.208246
0.208295
0.208337
0.208372
0.208398
0.208416
0.208425
0.128179
0.126838
0.125635
0.124945
0.124373
0.123962
0.123704
0.123515
0.123475
0.123433
0.123428
0.123442
0.123549
0.123821
0.124188
0.124593
0.125114
0.125841
0.12701
0.128324
0.127248
0.12391
0.122087
0.121796
0.121124
0.120644
0.120458
0.120193
0.120356
0.120257
0.120221
0.12013
0.120178
0.120574
0.12103
0.121318
0.121755
0.122313
0.12403
0.127217
0.130254
0.126888
0.125012
0.12475
0.124135
0.1238
0.123661
0.123326
0.123449
0.123365
0.123456
0.123356
0.123325
0.123656
0.124106
0.124488
0.124886
0.125288
0.126956
0.13045
0.137993
0.136823
0.135743
0.135204
0.134801
0.134644
0.134489
0.134241
0.134155
0.134148
0.134318
0.134331
0.134332
0.13449
0.134808
0.135285
0.135684
0.136099
0.137028
0.13853
0.145772
0.145317
0.144795
0.144409
0.144114
0.143918
0.143774
0.143658
0.14361
0.143612
0.143668
0.143727
0.143818
0.143983
0.144223
0.144525
0.144857
0.145245
0.14576
0.146274
0.152892
0.152691
0.15242
0.152172
0.151969
0.151817
0.151709
0.15164
0.151613
0.151624
0.151669
0.151739
0.151842
0.151989
0.152179
0.152405
0.15266
0.152939
0.153231
0.153452
0.159516
0.159419
0.159272
0.159121
0.158989
0.158886
0.158816
0.158776
0.158768
0.158789
0.158836
0.158908
0.159006
0.159133
0.159287
0.159462
0.159652
0.159845
0.16002
0.160134
0.165732
0.165682
0.165602
0.165514
0.165435
0.165373
0.165334
0.165319
0.165326
0.165357
0.165408
0.165479
0.16557
0.16568
0.165805
0.165942
0.166084
0.166219
0.166331
0.166398
0.171587
0.171562
0.17152
0.171473
0.171432
0.171402
0.171389
0.171393
0.171414
0.171453
0.171508
0.171578
0.171661
0.171756
0.171861
0.171969
0.172077
0.172174
0.172251
0.172294
0.177106
0.177095
0.177076
0.177056
0.177041
0.177036
0.177042
0.177062
0.177095
0.177141
0.177199
0.177267
0.177344
0.177429
0.177517
0.177606
0.17769
0.177763
0.177818
0.177848
0.18229
0.182287
0.182283
0.182281
0.182285
0.182297
0.182319
0.182352
0.182394
0.182446
0.182507
0.182574
0.182647
0.182723
0.182799
0.182874
0.182941
0.182999
0.18304
0.183063
0.187124
0.187127
0.187132
0.187143
0.187161
0.187186
0.18722
0.187262
0.187312
0.187369
0.187432
0.187499
0.187568
0.187638
0.187707
0.187771
0.187828
0.187874
0.187908
0.187925
0.191582
0.191588
0.1916
0.19162
0.191647
0.191682
0.191725
0.191775
0.191831
0.191892
0.191957
0.192024
0.192091
0.192157
0.192219
0.192276
0.192326
0.192365
0.192393
0.192408
0.195625
0.195633
0.19565
0.195676
0.195711
0.195753
0.195803
0.195859
0.195921
0.195985
0.196052
0.196119
0.196184
0.196247
0.196305
0.196357
0.196402
0.196437
0.196461
0.196473
0.19921
0.199221
0.199241
0.199272
0.199311
0.19936
0.199415
0.199476
0.199541
0.199609
0.199677
0.199744
0.199809
0.199869
0.199924
0.199973
0.200014
0.200045
0.200067
0.200078
0.202293
0.202304
0.202327
0.202361
0.202405
0.202457
0.202517
0.202582
0.20265
0.20272
0.202789
0.202857
0.202921
0.20298
0.203033
0.203079
0.203117
0.203146
0.203166
0.203177
0.204826
0.204839
0.204863
0.2049
0.204947
0.205002
0.205065
0.205133
0.205203
0.205275
0.205345
0.205413
0.205476
0.205534
0.205586
0.20563
0.205666
0.205694
0.205713
0.205723
0.206769
0.206782
0.206808
0.206847
0.206895
0.206953
0.207018
0.207088
0.20716
0.207233
0.207304
0.207372
0.207435
0.207492
0.207543
0.207586
0.207621
0.207648
0.207666
0.207675
0.208087
0.208101
0.208128
0.208167
0.208217
0.208276
0.208343
0.208414
0.208487
0.20856
0.208632
0.2087
0.208763
0.20882
0.208869
0.208912
0.208946
0.208972
0.20899
0.208999
0.208754
0.208768
0.208795
0.208834
0.208885
0.208945
0.209012
0.209084
0.209158
0.209232
0.209303
0.209371
0.209434
0.209491
0.20954
0.209582
0.209616
0.209642
0.209659
0.209668
0.13166
0.130423
0.129287
0.128642
0.128136
0.127807
0.127585
0.127385
0.127328
0.127302
0.127346
0.127365
0.127441
0.127673
0.128022
0.128441
0.128922
0.129558
0.130641
0.131944
0.130531
0.127506
0.125655
0.125292
0.124711
0.124489
0.124357
0.123969
0.124009
0.123945
0.124145
0.124056
0.123975
0.124235
0.124676
0.12518
0.12559
0.125936
0.127505
0.130916
0.133717
0.130594
0.128842
0.128602
0.128043
0.127735
0.127609
0.127308
0.127429
0.127357
0.12744
0.12735
0.12733
0.127646
0.128067
0.128417
0.128779
0.129158
0.130727
0.133964
0.141194
0.139787
0.138891
0.138568
0.138156
0.137771
0.1376
0.137525
0.137608
0.137574
0.137481
0.137492
0.137634
0.137928
0.138225
0.138393
0.138737
0.139278
0.140238
0.141387
0.148463
0.147992
0.147526
0.147204
0.146929
0.146711
0.146575
0.1465
0.14649
0.146489
0.146504
0.146559
0.146674
0.146859
0.147081
0.147317
0.147615
0.147998
0.148487
0.148929
0.155259
0.155067
0.154823
0.154604
0.15442
0.154276
0.15418
0.154126
0.154113
0.154126
0.154165
0.154235
0.15434
0.154487
0.154665
0.154869
0.155102
0.155364
0.155635
0.155833
0.161655
0.161566
0.161434
0.1613
0.161182
0.161091
0.16103
0.160999
0.160998
0.161023
0.161071
0.161143
0.161241
0.161364
0.16151
0.161674
0.16185
0.16203
0.162192
0.162296
0.167722
0.167678
0.167606
0.167529
0.16746
0.167408
0.167377
0.167368
0.167381
0.167415
0.167468
0.16754
0.16763
0.167736
0.167857
0.167987
0.16812
0.168246
0.168351
0.168413
0.173496
0.173474
0.173438
0.173398
0.173364
0.173342
0.173335
0.173344
0.17337
0.173412
0.173469
0.17354
0.173623
0.173716
0.173817
0.173921
0.174024
0.174116
0.174188
0.174228
0.178986
0.178977
0.178962
0.178948
0.178938
0.178939
0.17895
0.178975
0.179012
0.179061
0.179121
0.179191
0.179268
0.179352
0.179438
0.179524
0.179604
0.179674
0.179727
0.179755
0.184182
0.184181
0.18418
0.184183
0.184191
0.184209
0.184235
0.184272
0.184319
0.184374
0.184437
0.184506
0.184579
0.184655
0.18473
0.184803
0.184868
0.184924
0.184964
0.184985
0.18906
0.189064
0.189072
0.189087
0.189109
0.189139
0.189177
0.189224
0.189278
0.189338
0.189404
0.189472
0.189543
0.189613
0.18968
0.189744
0.189799
0.189845
0.189877
0.189894
0.193583
0.19359
0.193605
0.193628
0.193659
0.193699
0.193747
0.193801
0.193862
0.193926
0.193994
0.194063
0.194131
0.194197
0.194259
0.194316
0.194364
0.194403
0.19443
0.194444
0.197704
0.197714
0.197733
0.197763
0.197802
0.197849
0.197904
0.197965
0.19803
0.198099
0.198168
0.198238
0.198304
0.198368
0.198426
0.198477
0.198521
0.198555
0.198579
0.198591
0.201374
0.201385
0.201409
0.201443
0.201487
0.20154
0.201601
0.201667
0.201737
0.201808
0.20188
0.201949
0.202015
0.202077
0.202132
0.20218
0.20222
0.202251
0.202272
0.202283
0.204539
0.204552
0.204578
0.204615
0.204664
0.204722
0.204787
0.204857
0.20493
0.205004
0.205077
0.205147
0.205213
0.205272
0.205326
0.205371
0.205409
0.205437
0.205457
0.205467
0.207148
0.207162
0.207189
0.20723
0.207282
0.207343
0.207411
0.207485
0.20756
0.207636
0.20771
0.207781
0.207846
0.207905
0.207956
0.208
0.208036
0.208063
0.208081
0.20809
0.209153
0.209167
0.209196
0.209239
0.209293
0.209357
0.209428
0.209503
0.209581
0.209658
0.209733
0.209804
0.209869
0.209927
0.209977
0.21002
0.210054
0.21008
0.210097
0.210106
0.210515
0.21053
0.21056
0.210603
0.210659
0.210724
0.210797
0.210874
0.210953
0.211031
0.211106
0.211177
0.211242
0.211299
0.211349
0.211391
0.211424
0.211449
0.211466
0.211475
0.211204
0.211219
0.21125
0.211294
0.211351
0.211417
0.21149
0.211568
0.211647
0.211726
0.211801
0.211872
0.211937
0.211994
0.212043
0.212085
0.212118
0.212142
0.212159
0.212168
0.138005
0.137322
0.136574
0.13604
0.135635
0.135353
0.135158
0.135013
0.134953
0.134939
0.134974
0.135023
0.135124
0.135325
0.135614
0.135969
0.136391
0.136931
0.137669
0.138381
0.1385
0.137417
0.136473
0.135977
0.135572
0.135314
0.13514
0.134971
0.134934
0.134921
0.134976
0.135001
0.135071
0.135277
0.135583
0.135942
0.136336
0.136837
0.137737
0.138894
0.141041
0.13963
0.138631
0.138261
0.137863
0.137607
0.137461
0.137294
0.13731
0.137287
0.137334
0.137338
0.1374
0.137628
0.137934
0.138243
0.138593
0.139022
0.139966
0.141424
0.146589
0.145917
0.145317
0.144961
0.144654
0.144415
0.144272
0.144187
0.144184
0.14418
0.144189
0.144234
0.144345
0.144545
0.144785
0.145031
0.145345
0.145767
0.146383
0.147021
0.152678
0.152379
0.152039
0.15177
0.151546
0.151374
0.151262
0.151201
0.151188
0.151197
0.151228
0.151292
0.151402
0.151563
0.151759
0.151979
0.152241
0.152557
0.152921
0.153217
0.158796
0.158656
0.158466
0.158287
0.158135
0.158018
0.15794
0.1579
0.157894
0.157914
0.157958
0.158029
0.158132
0.158268
0.158431
0.158614
0.15882
0.159044
0.159262
0.159413
0.164795
0.164725
0.16462
0.164511
0.164415
0.164341
0.164294
0.164275
0.164282
0.164312
0.164363
0.164436
0.164531
0.164649
0.164784
0.164933
0.165091
0.165248
0.165386
0.165472
0.170636
0.1706
0.170543
0.170482
0.170428
0.170389
0.170368
0.170369
0.170389
0.170428
0.170484
0.170556
0.170645
0.170747
0.170861
0.170981
0.171102
0.171216
0.171308
0.171361
0.176297
0.17628
0.176253
0.176224
0.1762
0.176188
0.17619
0.176207
0.17624
0.176287
0.176346
0.176418
0.1765
0.176591
0.176688
0.176786
0.176881
0.176965
0.17703
0.177066
0.181758
0.181752
0.181744
0.181737
0.181736
0.181744
0.181764
0.181795
0.181839
0.181892
0.181956
0.182027
0.182104
0.182186
0.18227
0.182351
0.182427
0.182493
0.182541
0.182567
0.186987
0.186988
0.186991
0.187
0.187016
0.18704
0.187074
0.187118
0.18717
0.18723
0.187296
0.187367
0.187441
0.187516
0.18759
0.18766
0.187723
0.187775
0.187813
0.187833
0.191941
0.191947
0.191959
0.191979
0.192007
0.192044
0.19209
0.192143
0.192203
0.192268
0.192337
0.192408
0.19248
0.19255
0.192617
0.192679
0.192732
0.192776
0.192806
0.192822
0.196571
0.19658
0.196599
0.196627
0.196665
0.196712
0.196767
0.196828
0.196895
0.196965
0.197036
0.197108
0.197178
0.197245
0.197306
0.197361
0.197409
0.197446
0.197472
0.197485
0.200819
0.200831
0.200855
0.20089
0.200935
0.20099
0.201052
0.20112
0.201192
0.201266
0.20134
0.201413
0.201481
0.201546
0.201603
0.201654
0.201696
0.201729
0.201752
0.201763
0.204624
0.204638
0.204665
0.204705
0.204756
0.204817
0.204886
0.20496
0.205036
0.205114
0.20519
0.205263
0.205331
0.205393
0.205448
0.205496
0.205534
0.205564
0.205584
0.205595
0.207921
0.207936
0.207966
0.20801
0.208067
0.208133
0.208206
0.208285
0.208365
0.208446
0.208524
0.208597
0.208665
0.208726
0.208778
0.208823
0.208859
0.208887
0.208905
0.208914
0.210649
0.210666
0.210698
0.210745
0.210805
0.210875
0.210953
0.211035
0.211118
0.211201
0.21128
0.211354
0.211422
0.211481
0.211533
0.211575
0.211609
0.211635
0.211652
0.211661
0.212753
0.21277
0.212804
0.212853
0.212916
0.212989
0.213069
0.213154
0.21324
0.213324
0.213405
0.213479
0.213546
0.213605
0.213655
0.213696
0.213729
0.213753
0.213769
0.213777
0.214185
0.214202
0.214237
0.214288
0.214353
0.214428
0.21451
0.214596
0.214684
0.214769
0.21485
0.214925
0.214992
0.21505
0.215099
0.21514
0.215171
0.215195
0.21521
0.215218
0.21491
0.214929
0.214964
0.215016
0.215081
0.215157
0.21524
0.215327
0.215415
0.215501
0.215583
0.215658
0.215724
0.215782
0.215831
0.215871
0.215902
0.215925
0.21594
0.215948
0.145059
0.144712
0.14427
0.143891
0.14359
0.143368
0.143212
0.143108
0.143062
0.143058
0.143093
0.143158
0.143269
0.143443
0.143678
0.143966
0.144305
0.144707
0.145161
0.145523
0.146046
0.145617
0.14513
0.144759
0.144467
0.144256
0.14411
0.144008
0.143969
0.143968
0.144007
0.144066
0.14417
0.144343
0.144577
0.144858
0.145184
0.145578
0.146073
0.146524
0.148526
0.148057
0.14758
0.147251
0.146982
0.146787
0.146657
0.146567
0.146544
0.146547
0.146584
0.14664
0.146741
0.146913
0.147137
0.147394
0.147692
0.148055
0.148542
0.149027
0.152708
0.152409
0.152066
0.151796
0.151575
0.151407
0.151297
0.151233
0.151218
0.151227
0.151262
0.151327
0.151434
0.151592
0.151789
0.152012
0.152274
0.152587
0.15295
0.153254
0.157753
0.157586
0.157368
0.157171
0.157005
0.156878
0.156794
0.15675
0.156743
0.156762
0.156804
0.156875
0.156979
0.157119
0.157288
0.15748
0.157698
0.15794
0.158185
0.158361
0.16318
0.163089
0.162958
0.162827
0.162713
0.162626
0.162571
0.162546
0.16255
0.162577
0.162627
0.1627
0.162799
0.162922
0.163066
0.163227
0.163401
0.16358
0.163743
0.163848
0.168753
0.168704
0.168628
0.168548
0.168478
0.168426
0.168397
0.168391
0.168407
0.168443
0.168499
0.168573
0.168665
0.168774
0.168897
0.169029
0.169166
0.169297
0.169408
0.169474
0.174353
0.174328
0.174288
0.174245
0.174209
0.174186
0.174179
0.174191
0.174219
0.174264
0.174324
0.174397
0.174484
0.174581
0.174686
0.174795
0.174903
0.175001
0.175079
0.175123
0.179909
0.179898
0.179881
0.179864
0.179854
0.179854
0.179868
0.179895
0.179935
0.179987
0.180051
0.180124
0.180206
0.180293
0.180384
0.180475
0.180561
0.180636
0.180693
0.180725
0.185363
0.185361
0.18536
0.185362
0.185372
0.185391
0.18542
0.185461
0.185511
0.185571
0.185638
0.185711
0.185789
0.185869
0.185949
0.186026
0.186097
0.186156
0.186199
0.186223
0.190659
0.190664
0.190673
0.19069
0.190714
0.190748
0.190791
0.190843
0.190903
0.190969
0.19104
0.191113
0.191188
0.191263
0.191335
0.191401
0.19146
0.191509
0.191544
0.191562
0.195737
0.195746
0.195763
0.19579
0.195827
0.195873
0.195928
0.19599
0.196058
0.196129
0.196203
0.196278
0.196351
0.196421
0.196487
0.196546
0.196597
0.196637
0.196666
0.196681
0.20053
0.200541
0.200565
0.200601
0.200648
0.200704
0.200768
0.200839
0.200914
0.20099
0.201067
0.201143
0.201215
0.201282
0.201343
0.201396
0.201441
0.201476
0.2015
0.201512
0.204964
0.204979
0.205008
0.20505
0.205105
0.205169
0.205242
0.20532
0.205401
0.205483
0.205563
0.205639
0.20571
0.205775
0.205832
0.205881
0.205921
0.205952
0.205973
0.205983
0.208964
0.208981
0.209014
0.209062
0.209124
0.209196
0.209275
0.20936
0.209446
0.209532
0.209614
0.209691
0.209762
0.209825
0.209879
0.209925
0.209961
0.209989
0.210007
0.210016
0.212452
0.212471
0.212507
0.21256
0.212627
0.212705
0.21279
0.21288
0.212971
0.21306
0.213145
0.213223
0.213293
0.213355
0.213407
0.213449
0.213483
0.213508
0.213524
0.213532
0.215353
0.215373
0.215412
0.215469
0.21554
0.215623
0.215713
0.215807
0.215902
0.215994
0.21608
0.216159
0.216229
0.216289
0.216339
0.21638
0.216411
0.216434
0.216448
0.216456
0.217598
0.217619
0.21766
0.21772
0.217795
0.217881
0.217975
0.218073
0.21817
0.218264
0.218351
0.218431
0.218501
0.21856
0.218608
0.218647
0.218676
0.218697
0.218711
0.218718
0.219131
0.219153
0.219195
0.219257
0.219334
0.219423
0.219519
0.219619
0.219718
0.219813
0.219902
0.219981
0.220051
0.220109
0.220157
0.220194
0.220222
0.220242
0.220255
0.220262
0.219909
0.219931
0.219975
0.220037
0.220115
0.220205
0.220303
0.220403
0.220504
0.220599
0.220688
0.220768
0.220837
0.220896
0.220943
0.22098
0.221007
0.221026
0.221039
0.221045
0.152011
0.151834
0.15158
0.151333
0.151124
0.150964
0.15085
0.150779
0.15075
0.150758
0.150798
0.15087
0.150977
0.151127
0.151318
0.151545
0.151803
0.152084
0.15236
0.152551
0.153081
0.152889
0.15263
0.15239
0.152189
0.152036
0.151929
0.151863
0.151839
0.151849
0.15189
0.15196
0.152065
0.152213
0.152401
0.152621
0.152871
0.153147
0.153429
0.153635
0.155362
0.155173
0.154929
0.154712
0.154531
0.154393
0.154298
0.154242
0.154227
0.154241
0.154284
0.154353
0.154456
0.154599
0.154778
0.154984
0.155216
0.155472
0.15574
0.155942
0.158851
0.158712
0.158522
0.158344
0.158194
0.158079
0.158002
0.157961
0.157955
0.157975
0.15802
0.158092
0.158193
0.158328
0.15849
0.158675
0.15888
0.159101
0.159319
0.159471
0.163203
0.163113
0.162981
0.16285
0.162738
0.162651
0.162596
0.162571
0.162575
0.162602
0.162652
0.162726
0.162824
0.162947
0.163091
0.163252
0.163425
0.163604
0.163766
0.163871
0.1681
0.168046
0.167962
0.167875
0.167798
0.167742
0.167709
0.1677
0.167715
0.167751
0.167806
0.16788
0.167973
0.168085
0.168211
0.168348
0.168491
0.16863
0.168748
0.168819
0.173325
0.173294
0.173246
0.173194
0.17315
0.17312
0.173109
0.173117
0.173144
0.173188
0.173247
0.173322
0.17341
0.173511
0.173621
0.173737
0.173852
0.173959
0.174045
0.174095
0.178735
0.17872
0.178696
0.178672
0.178655
0.178649
0.178658
0.178681
0.178719
0.178771
0.178835
0.17891
0.178994
0.179086
0.179182
0.179279
0.179373
0.179456
0.17952
0.179556
0.18423
0.184225
0.184219
0.184216
0.18422
0.184234
0.18426
0.184298
0.184347
0.184407
0.184475
0.18455
0.18463
0.184715
0.1848
0.184883
0.18496
0.185025
0.185074
0.185101
0.189726
0.189729
0.189735
0.189748
0.189769
0.1898
0.189842
0.189892
0.189952
0.190018
0.190091
0.190166
0.190244
0.190323
0.190399
0.190471
0.190535
0.190588
0.190626
0.190647
0.195146
0.195154
0.19517
0.195196
0.195231
0.195277
0.195331
0.195393
0.195462
0.195536
0.195612
0.195689
0.195765
0.195838
0.195908
0.195971
0.196025
0.196069
0.1961
0.196117
0.20041
0.200422
0.200446
0.200482
0.20053
0.200587
0.200654
0.200727
0.200804
0.200884
0.200964
0.201042
0.201117
0.201187
0.201251
0.201307
0.201354
0.201391
0.201417
0.20143
0.205434
0.20545
0.20548
0.205525