# vtk DataFile Version 2.0
Pressure 3D1D coupled problem
ASCII
DATASET UNSTRUCTURED_GRID
POINTS 9261 float
0 0 0
0 0 0.1
0 0 0.2
0 0 0.3
0 0 0.4
0 0 0.5
0 0 0.6
0 0 0.7
0 0 0.8
0 0 0.9
0 0 1
0 0 1.1
0 0 1.2
0 0 1.3
0 0 1.4
0 0 1.5
0 0 1.6
0 0 1.7
0 0 1.8
0 0 1.9
0 0 2
0 0.1 0
0 0.1 0.1
0 0.1 0.2
0 0.1 0.3
0 0.1 0.4
0 0.1 0.5
0 0.1 0.6
0 0.1 0.7
0 0.1 0.8
0 0.1 0.9
0 0.1 1
0 0.1 1.1
0 0.1 1.2
0 0.1 1.3
0 0.1 1.4
0 0.1 1.5
0 0.1 1.6
0 0.1 1.7
0 0.1 1.8
0 0.1 1.9
0 0.1 2
0 0.2 0
0 0.2 0.1
0 0.2 0.2
0 0.2 0.3
0 0.2 0.4
0 0.2 0.5
0 0.2 0.6
0 0.2 0.7
0 0.2 0.8
0 0.2 0.9
0 0.2 1
0 0.2 1.1
0 0.2 1.2
0 0.2 1.3
0 0.2 1.4
0 0.2 1.5
0 0.2 1.6
0 0.2 1.7
0 0.2 1.8
0 0.2 1.9
0 0.2 2
0 0.3 0
0 0.3 0.1
0 0.3 0.2
0 0.3 0.3
0 0.3 0.4
0 0.3 0.5
0 0.3 0.6
0 0.3 0.7
0 0.3 0.8
0 0.3 0.9
0 0.3 1
0 0.3 1.1
0 0.3 1.2
0 0.3 1.3
0 0.3 1.4
0 0.3 1.5
0 0.3 1.6
0 0.3 1.7
0 0.3 1.8
0 0.3 1.9
0 0.3 2
0 0.4 0
0 0.4 0.1
0 0.4 0.2
0 0.4 0.3
0 0.4 0.4
0 0.4 0.5
0 0.4 0.6
0 0.4 0.7
0 0.4 0.8
0 0.4 0.9
0 0.4 1
0 0.4 1.1
0 0.4 1.2
0 0.4 1.3
0 0.4 1.4
0 0.4 1.5
0 0.4 1.6
0 0.4 1.7
0 0.4 1.8
0 0.4 1.9
0 0.4 2
0 0.5 0
0 0.5 0.1
0 0.5 0.2
0 0.5 0.3
0 0.5 0.4
0 0.5 0.5
0 0.5 0.6
0 0.5 0.7
0 0.5 0.8
0 0.5 0.9
0 0.5 1
0 0.5 1.1
0 0.5 1.2
0 0.5 1.3
0 0.5 1.4
0 0.5 1.5
0 0.5 1.6
0 0.5 1.7
0 0.5 1.8
0 0.5 1.9
0 0.5 2
0 0.6 0
0 0.6 0.1
0 0.6 0.2
0 0.6 0.3
0 0.6 0.4
0 0.6 0.5
0 0.6 0.6
0 0.6 0.7
0 0.6 0.8
0 0.6 0.9
0 0.6 1
0 0.6 1.1
0 0.6 1.2
0 0.6 1.3
0 0.6 1.4
0 0.6 1.5
0 0.6 1.6
0 0.6 1.7
0 0.6 1.8
0 0.6 1.9
0 0.6 2
0 0.7 0
0 0.7 0.1
0 0.7 0.2
0 0.7 0.3
0 0.7 0.4
0 0.7 0.5
0 0.7 0.6
0 0.7 0.7
0 0.7 0.8
0 0.7 0.9
0 0.7 1
0 0.7 1.1
0 0.7 1.2
0 0.7 1.3
0 0.7 1.4
0 0.7 1.5
0 0.7 1.6
0 0.7 1.7
0 0.7 1.8
0 0.7 1.9
0 0.7 2
0 0.8 0
0 0.8 0.1
0 0.8 0.2
0 0.8 0.3
0 0.8 0.4
0 0.8 0.5
0 0.8 0.6
0 0.8 0.7
0 0.8 0.8
0 0.8 0.9
0 0.8 1
0 0.8 1.1
0 0.8 1.2
0 0.8 1.3
0 0.8 1.4
0 0.8 1.5
0 0.8 1.6
0 0.8 1.7
0 0.8 1.8
0 0.8 1.9
0 0.8 2
0 0.9 0
0 0.9 0.1
0 0.9 0.2
0 0.9 0.3
0 0.9 0.4
0 0.9 0.5
0 0.9 0.6
0 0.9 0.7
0 0.9 0.8
0 0.9 0.9
0 0.9 1
0 0.9 1.1
0 0.9 1.2
0 0.9 1.3
0 0.9 1.4
0 0.9 1.5
0 0.9 1.6
0 0.9 1.7
0 0.9 1.8
0 0.9 1.9
0 0.9 2
0 1 0
0 1 0.1
0 1 0.2
0 1 0.3
0 1 0.4
0 1 0.5
0 1 0.6
0 1 0.7
0 1 0.8
0 1 0.9
0 1 1
0 1 1.1
0 1 1.2
0 1 1.3
0 1 1.4
0 1 1.5
0 1 1.6
0 1 1.7
0 1 1.8
0 1 1.9
0 1 2
0 1.1 0
0 1.1 0.1
0 1.1 0.2
0 1.1 0.3
0 1.1 0.4
0 1.1 0.5
0 1.1 0.6
0 1.1 0.7
0 1.1 0.8
0 1.1 0.9
0 1.1 1
0 1.1 1.1
0 1.1 1.2
0 1.1 1.3
0 1.1 1.4
0 1.1 1.5
0 1.1 1.6
0 1.1 1.7
0 1.1 1.8
0 1.1 1.9
0 1.1 2
0 1.2 0
0 1.2 0.1
0 1.2 0.2
0 1.2 0.3
0 1.2 0.4
0 1.2 0.5
0 1.2 0.6
0 1.2 0.7
0 1.2 0.8
0 1.2 0.9
0 1.2 1
0 1.2 1.1
0 1.2 1.2
0 1.2 1.3
0 1.2 1.4
0 1.2 1.5
0 1.2 1.6
0 1.2 1.7
0 1.2 1.8
0 1.2 1.9
0 1.2 2
0 1.3 0
0 1.3 0.1
0 1.3 0.2
0 1.3 0.3
0 1.3 0.4
0 1.3 0.5
0 1.3 0.6
0 1.3 0.7
0 1.3 0.8
0 1.3 0.9
0 1.3 1
0 1.3 1.1
0 1.3 1.2
0 1.3 1.3
0 1.3 1.4
0 1.3 1.5
0 1.3 1.6
0 1.3 1.7
0 1.3 1.8
0 1.3 1.9
0 1.3 2
0 1.4 0
0 1.4 0.1
0 1.4 0.2
0 1.4 0.3
0 1.4 0.4
0 1.4 0.5
0 1.4 0.6
0 1.4 0.7
0 1.4 0.8
0 1.4 0.9
0 1.4 1
0 1.4 1.1
0 1.4 1.2
0 1.4 1.3
0 1.4 1.4
0 1.4 1.5
0 1.4 1.6
0 1.4 1.7
0 1.4 1.8
0 1.4 1.9
0 1.4 2
0 1.5 0
0 1.5 0.1
0 1.5 0.2
0 1.5 0.3
0 1.5 0.4
0 1.5 0.5
0 1.5 0.6
0 1.5 0.7
0 1.5 0.8
0 1.5 0.9
0 1.5 1
0 1.5 1.1
0 1.5 1.2
0 1.5 1.3
0 1.5 1.4
0 1.5 1.5
0 1.5 1.6
0 1.5 1.7
0 1.5 1.8
0 1.5 1.9
0 1.5 2
0 1.6 0
0 1.6 0.1
0 1.6 0.2
0 1.6 0.3
0 1.6 0.4
0 1.6 0.5
0 1.6 0.6
0 1.6 0.7
0 1.6 0.8
0 1.6 0.9
0 1.6 1
0 1.6 1.1
0 1.6 1.2
0 1.6 1.3
0 1.6 1.4
0 1.6 1.5
0 1.6 1.6
0 1.6 1.7
0 1.6 1.8
0 1.6 1.9
0 1.6 2
0 1.7 0
0 1.7 0.1
0 1.7 0.2
0 1.7 0.3
0 1.7 0.4
0 1.7 0.5
0 1.7 0.6
0 1.7 0.7
0 1.7 0.8
0 1.7 0.9
0 1.7 1
0 1.7 1.1
0 1.7 1.2
0 1.7 1.3
0 1.7 1.4
0 1.7 1.5
0 1.7 1.6
0 1.7 1.7
0 1.7 1.8
0 1.7 1.9
0 1.7 2
0 1.8 0
0 1.8 0.1
0 1.8 0.2
0 1.8 0.3
0 1.8 0.4
0 1.8 0.5
0 1.8 0.6
0 1.8 0.7
0 1.8 0.8
0 1.8 0.9
0 1.8 1
0 1.8 1.1
0 1.8 1.2
0 1.8 1.3
0 1.8 1.4
0 1.8 1.5
0 1.8 1.6
0 1.8 1.7
0 1.8 1.8
0 1.8 1.9
0 1.8 2
0 1.9 0
0 1.9 0.1
0 1.9 0.2
0 1.9 0.3
0 1.9 0.4
0 1.9 0.5
0 1.9 0.6
0 1.9 0.7
0 1.9 0.8
0 1.9 0.9
0 1.9 1
0 1.9 1.1
0 1.9 1.2
0 1.9 1.3
0 1.9 1.4
0 1.9 1.5
0 1.9 1.6
0 1.9 1.7
0 1.9 1.8
0 1.9 1.9
0 1.9 2
0 2 0
0 2 0.1
0 2 0.2
0 2 0.3
0 2 0.4
0 2 0.5
0 2 0.6
0 2 0.7
0 2 0.8
0 2 0.9
0 2 1
0 2 1.1
0 2 1.2
0 2 1.3
0 2 1.4
0 2 1.5
0 2 1.6
0 2 1.7
0 2 1.8
0 2 1.9
0 2 2
0.1 0 0
0.1 0 0.1
0.1 0 0.2
0.1 0 0.3
0.1 0 0.4
0.1 0 0.5
0.1 0 0.6
0.1 0 0.7
0.1 0 0.8
0.1 0 0.9
0.1 0 1
0.1 0 1.1
0.1 0 1.2
0.1 0 1.3
0.1 0 1.4
0.1 0 1.5
0.1 0 1.6
0.1 0 1.7
0.1 0 1.8
0.1 0 1.9
0.1 0 2
0.1 0.1 0
0.1 0.1 0.1
0.1 0.1 0.2
0.1 0.1 0.3
0.1 0.1 0.4
0.1 0.1 0.5
0.1 0.1 0.6
0.1 0.1 0.7
0.1 0.1 0.8
0.1 0.1 0.9
0.1 0.1 1
0.1 0.1 1.1
0.1 0.1 1.2
0.1 0.1 1.3
0.1 0.1 1.4
0.1 0.1 1.5
0.1 0.1 1.6
0.1 0.1 1.7
0.1 0.1 1.8
0.1 0.1 1.9
0.1 0.1 2
0.1 0.2 0
0.1 0.2 0.1
0.1 0.2 0.2
0.1 0.2 0.3
0.1 0.2 0.4
0.1 0.2 0.5
0.1 0.2 0.6
0.1 0.2 0.7
0.1 0.2 0.8
0.1 0.2 0.9
0.1 0.2 1
0.1 0.2 1.1
0.1 0.2 1.2
0.1 0.2 1.3
0.1 0.2 1.4
0.1 0.2 1.5
0.1 0.2 1.6
0.1 0.2 1.7
0.1 0.2 1.8
0.1 0.2 1.9
0.1 0.2 2
0.1 0.3 0
0.1 0.3 0.1
0.1 0.3 0.2
0.1 0.3 0.3
0.1 0.3 0.4
0.1 0.3 0.5
0.1 0.3 0.6
0.1 0.3 0.7
0.1 0.3 0.8
0.1 0.3 0.9
0.1 0.3 1
0.1 0.3 1.1
0.1 0.3 1.2
0.1 0.3 1.3
0.1 0.3 1.4
0.1 0.3 1.5
0.1 0.3 1.6
0.1 0.3 1.7
0.1 0.3 1.8
0.1 0.3 1.9
0.1 0.3 2
0.1 0.4 0
0.1 0.4 0.1
0.1 0.4 0.2
0.1 0.4 0.3
0.1 0.4 0.4
0.1 0.4 0.5
0.1 0.4 0.6
0.1 0.4 0.7
0.1 0.4 0.8
0.1 0.4 0.9
0.1 0.4 1
0.1 0.4 1.1
0.1 0.4 1.2
0.1 0.4 1.3
0.1 0.4 1.4
0.1 0.4 1.5
0.1 0.4 1.6
0.1 0.4 1.7
0.1 0.4 1.8
0.1 0.4 1.9
0.1 0.4 2
0.1 0.5 0
0.1 0.5 0.1
0.1 0.5 0.2
0.1 0.5 0.3
0.1 0.5 0.4
0.1 0.5 0.5
0.1 0.5 0.6
0.1 0.5 0.7
0.1 0.5 0.8
0.1 0.5 0.9
0.1 0.5 1
0.1 0.5 1.1
0.1 0.5 1.2
0.1 0.5 1.3
0.1 0.5 1.4
0.1 0.5 1.5
0.1 0.5 1.6
0.1 0.5 1.7
0.1 0.5 1.8
0.1 0.5 1.9
0.1 0.5 2
0.1 0.6 0
0.1 0.6 0.1
0.1 0.6 0.2
0.1 0.6 0.3
0.1 0.6 0.4
0.1 0.6 0.5
0.1 0.6 0.6
0.1 0.6 0.7
0.1 0.6 0.8
0.1 0.6 0.9
0.1 0.6 1
0.1 0.6 1.1
0.1 0.6 1.2
0.1 0.6 1.3
0.1 0.6 1.4
0.1 0.6 1.5
0.1 0.6 1.6
0.1 0.6 1.7
0.1 0.6 1.8
0.1 0.6 1.9
0.1 0.6 2
0.1 0.7 0
0.1 0.7 0.1
0.1 0.7 0.2
0.1 0.7 0.3
0.1 0.7 0.4
0.1 0.7 0.5
0.1 0.7 0.6
0.1 0.7 0.7
0.1 0.7 0.8
0.1 0.7 0.9
0.1 0.7 1
0.1 0.7 1.1
0.1 0.7 1.2
0.1 0.7 1.3
0.1 0.7 1.4
0.1 0.7 1.5
0.1 0.7 1.6
0.1 0.7 1.7
0.1 0.7 1.8
0.1 0.7 1.9
0.1 0.7 2
0.1 0.8 0
0.1 0.8 0.1
0.1 0.8 0.2
0.1 0.8 0.3
0.1 0.8 0.4
0.1 0.8 0.5
0.1 0.8 0.6
0.1 0.8 0.7
0.1 0.8 0.8
0.1 0.8 0.9
0.1 0.8 1
0.1 0.8 1.1
0.1 0.8 1.2
0.1 0.8 1.3
0.1 0.8 1.4
0.1 0.8 1.5
0.1 0.8 1.6
0.1 0.8 1.7
0.1 0.8 1.8
0.1 0.8 1.9
0.1 0.8 2
0.1 0.9 0
0.1 0.9 0.1
0.1 0.9 0.2
0.1 0.9 0.3
0.1 0.9 0.4
0.1 0.9 0.5
0.1 0.9 0.6
0.1 0.9 0.7
0.1 0.9 0.8
0.1 0.9 0.9
0.1 0.9 1
0.1 0.9 1.1
0.1 0.9 1.2
0.1 0.9 1.3
0.1 0.9 1.4
0.1 0.9 1.5
0.1 0.9 1.6
0.1 0.9 1.7
0.1 0.9 1.8
0.1 0.9 1.9
0.1 0.9 2
0.1 1 0
0.1 1 0.1
0.1 1 0.2
0.1 1 0.3
0.1 1 0.4
0.1 1 0.5
0.1 1 0.6
0.1 1 0.7
0.1 1 0.8
0.1 1 0.9
0.1 1 1
0.1 1 1.1
0.1 1 1.2
0.1 1 1.3
0.1 1 1.4
0.1 1 1.5
0.1 1 1.6
0.1 1 1.7
0.1 1 1.8
0.1 1 1.9
0.1 1 2
0.1 1.1 0
0.1 1.1 0.1
0.1 1.1 0.2
0.1 1.1 0.3
0.1 1.1 0.4
0.1 1.1 0.5
0.1 1.1 0.6
0.1 1.1 0.7
0.1 1.1 0.8
0.1 1.1 0.9
0.1 1.1 1
0.1 1.1 1.1
0.1 1.1 1.2
0.1 1.1 1.3
0.1 1.1 1.4
0.1 1.1 1.5
0.1 1.1 1.6
0.1 1.1 1.7
0.1 1.1 1.8
0.1 1.1 1.9
0.1 1.1 2
0.1 1.2 0
0.1 1.2 0.1
0.1 1.2 0.2
0.1 1.2 0.3
0.1 1.2 0.4
0.1 1.2 0.5
0.1 1.2 0.6
0.1 1.2 0.7
0.1 1.2 0.8
0.1 1.2 0.9
0.1 1.2 1
0.1 1.2 1.1
0.1 1.2 1.2
0.1 1.2 1.3
0.1 1.2 1.4
0.1 1.2 1.5
0.1 1.2 1.6
0.1 1.2 1.7
0.1 1.2 1.8
0.1 1.2 1.9
0.1 1.2 2
0.1 1.3 0
0.1 1.3 0.1
0.1 1.3 0.2
0.1 1.3 0.3
0.1 1.3 0.4
0.1 1.3 0.5
0.1 1.3 0.6
0.1 1.3 0.7
0.1 1.3 0.8
0.1 1.3 0.9
0.1 1.3 1
0.1 1.3 1.1
0.1 1.3 1.2
0.1 1.3 1.3
0.1 1.3 1.4
0.1 1.3 1.5
0.1 1.3 1.6
0.1 1.3 1.7
0.1 1.3 1.8
0.1 1.3 1.9
0.1 1.3 2
0.1 1.4 0
0.1 1.4 0.1
0.1 1.4 0.2
0.1 1.4 0.3
0.1 1.4 0.4
0.1 1.4 0.5
0.1 1.4 0.6
0.1 1.4 0.7
0.1 1.4 0.8
0.1 1.4 0.9
0.1 1.4 1
0.1 1.4 1.1
0.1 1.4 1.2
0.1 1.4 1.3
0.1 1.4 1.4
0.1 1.4 1.5
0.1 1.4 1.6
0.1 1.4 1.7
0.1 1.4 1.8
0.1 1.4 1.9
0.1 1.4 2
0.1 1.5 0
0.1 1.5 0.1
0.1 1.5 0.2
0.1 1.5 0.3
0.1 1.5 0.4
0.1 1.5 0.5
0.1 1.5 0.6
0.1 1.5 0.7
0.1 1.5 0.8
0.1 1.5 0.9
0.1 1.5 1
0.1 1.5 1.1
0.1 1.5 1.2
0.1 1.5 1.3
0.1 1.5 1.4
0.1 1.5 1.5
0.1 1.5 1.6
0.1 1.5 1.7
0.1 1.5 1.8
0.1 1.5 1.9
0.1 1.5 2
0.1 1.6 0
0.1 1.6 0.1
0.1 1.6 0.2
0.1 1.6 0.3
0.1 1.6 0.4
0.1 1.6 0.5
0.1 1.6 0.6
0.1 1.6 0.7
0.1 1.6 0.8
0.1 1.6 0.9
0.1 1.6 1
0.1 1.6 1.1
0.1 1.6 1.2
0.1 1.6 1.3
0.1 1.6 1.4
0.1 1.6 1.5
0.1 1.6 1.6
0.1 1.6 1.7
0.1 1.6 1.8
0.1 1.6 1.9
0.1 1.6 2
0.1 1.7 0
0.1 1.7 0.1
0.1 1.7 0.2
0.1 1.7 0.3
0.1 1.7 0.4
0.1 1.7 0.5
0.1 1.7 0.6
0.1 1.7 0.7
0.1 1.7 0.8
0.1 1.7 0.9
0.1 1.7 1
0.1 1.7 1.1
0.1 1.7 1.2
0.1 1.7 1.3
0.1 1.7 1.4
0.1 1.7 1.5
0.1 1.7 1.6
0.1 1.7 1.7
0.1 1.7 1.8
0.1 1.7 1.9
0.1 1.7 2
0.1 1.8 0
0.1 1.8 0.1
0.1 1.8 0.2
0.1 1.8 0.3
0.1 1.8 0.4
0.1 1.8 0.5
0.1 1.8 0.6
0.1 1.8 0.7
0.1 1.8 0.8
0.1 1.8 0.9
0.1 1.8 1
0.1 1.8 1.1
0.1 1.8 1.2
0.1 1.8 1.3
0.1 1.8 1.4
0.1 1.8 1.5
0.1 1.8 1.6
0.1 1.8 1.7
0.1 1.8 1.8
0.1 1.8 1.9
0.1 1.8 2
0.1 1.9 0
0.1 1.9 0.1
0.1 1.9 0.2
0.1 1.9 0.3
0.1 1.9 0.4
0.1 1.9 0.5
0.1 1.9 0.6
0.1 1.9 0.7
0.1 1.9 0.8
0.1 1.9 0.9
0.1 1.9 1
0.1 1.9 1.1
0.1 1.9 1.2
0.1 1.9 1.3
0.1 1.9 1.4
0.1 1.9 1.5
0.1 1.9 1.6
0.1 1.9 1.7
0.1 1.9 1.8
0.1 1.9 1.9
0.1 1.9 2
0.1 2 0
0.1 2 0.1
0.1 2 0.2
0.1 2 0.3
0.1 2 0.4
0.1 2 0.5
0.1 2 0.6
0.1 2 0.7
0.1 2 0.8
0.1 2 0.9
0.1 2 1
0.1 2 1.1
0.1 2 1.2
0.1 2 1.3
0.1 2 1.4
0.1 2 1.5
0.1 2 1.6
0.1 2 1.7
0.1 2 1.8
0.1 2 1.9
0.1 2 2
0.2 0 0
0.2 0 0.1
0.2 0 0.2
0.2 0 0.3
0.2 0 0.4
0.2 0 0.5
0.2 0 0.6
0.2 0 0.7
0.2 0 0.8
0.2 0 0.9
0.2 0 1
0.2 0 1.1
0.2 0 1.2
0.2 0 1.3
0.2 0 1.4
0.2 0 1.5
0.2 0 1.6
0.2 0 1.7
0.2 0 1.8
0.2 0 1.9
0.2 0 2
0.2 0.1 0
0.2 0.1 0.1
0.2 0.1 0.2
0.2 0.1 0.3
0.2 0.1 0.4
0.2 0.1 0.5
0.2 0.1 0.6
0.2 0.1 0.7
0.2 0.1 0.8
0.2 0.1 0.9
0.2 0.1 1
0.2 0.1 1.1
0.2 0.1 1.2
0.2 0.1 1.3
0.2 0.1 1.4
0.2 0.1 1.5
0.2 0.1 1.6
0.2 0.1 1.7
0.2 0.1 1.8
0.2 0.1 1.9
0.2 0.1 2
0.2 0.2 0
0.2 0.2 0.1
0.2 0.2 0.2
0.2 0.2 0.3
0.2 0.2 0.4
0.2 0.2 0.5
0.2 0.2 0.6
0.2 0.2 0.7
0.2 0.2 0.8
0.2 0.2 0.9
0.2 0.2 1
0.2 0.2 1.1
0.2 0.2 1.2
0.2 0.2 1.3
0.2 0.2 1.4
0.2 0.2 1.5
0.2 0.2 1.6
0.2 0.2 1.7
0.2 0.2 1.8
0.2 0.2 1.9
[...]
CELL_DATA 8000
SCALARS Phi_sigma_(3D) float 1
LOOKUP_TABLE default
0.140638
0.139638
0.138538
0.137736
0.137115
0.136661
0.13636
0.136165
0.136085
0.136041
0.136037
0.136079
0.136218
0.136496
0.13688
0.137343
0.137943
0.138755
0.139834
0.140812
0.141302
0.139839
0.138535
0.137791
0.137173
0.136724
0.136446
0.136246
0.136207
0.136162
0.136152
0.136167
0.136286
0.136584
0.136981
0.137414
0.137976
0.138766
0.140036
0.14146
0.144796
0.143371
0.142113
0.141426
0.14087
0.140491
0.140248
0.140045
0.140002
0.139969
0.139996
0.140012
0.140105
0.140373
0.140753
0.141183
0.141701
0.142407
0.143617
0.145067
0.151426
0.150637
0.149776
0.149177
0.148737
0.148453
0.148246
0.148072
0.147997
0.147986
0.148047
0.148098
0.148192
0.148399
0.148719
0.14913
0.149592
0.150169
0.151003
0.151869
0.158985
0.158588
0.158082
0.157658
0.157329
0.157097
0.15693
0.15681
0.156754
0.156753
0.156801
0.156872
0.156985
0.157169
0.157429
0.157754
0.158128
0.158567
0.15908
0.159512
0.16641
0.166209
0.165922
0.165646
0.165418
0.165245
0.165122
0.165043
0.16501
0.165019
0.165066
0.165144
0.165259
0.16542
0.165631
0.165883
0.166168
0.166478
0.166789
0.167009
0.173426
0.173321
0.173159
0.172989
0.172839
0.172722
0.17264
0.172593
0.172581
0.172601
0.172652
0.172731
0.172839
0.172979
0.173149
0.173345
0.173557
0.173772
0.173964
0.174086
0.179996
0.17994
0.17985
0.17975
0.179659
0.179587
0.17954
0.17952
0.179525
0.179556
0.179611
0.179688
0.179787
0.179908
0.180047
0.1802
0.180357
0.180508
0.180633
0.180707
0.186143
0.186114
0.186066
0.186011
0.185962
0.185926
0.185907
0.185908
0.185929
0.185969
0.186027
0.186102
0.186193
0.186298
0.186413
0.186534
0.186653
0.186762
0.186847
0.186895
0.191892
0.191878
0.191855
0.19183
0.19181
0.1918
0.191804
0.191822
0.191855
0.191903
0.191964
0.192038
0.192122
0.192214
0.192311
0.192409
0.192502
0.192584
0.192645
0.192679
0.19725
0.197246
0.19724
0.197235
0.197236
0.197245
0.197265
0.197297
0.19734
0.197394
0.197458
0.197531
0.197609
0.197692
0.197776
0.197858
0.197933
0.197997
0.198044
0.198068
0.202215
0.202216
0.20222
0.202229
0.202244
0.202268
0.202301
0.202343
0.202395
0.202454
0.20252
0.202592
0.202667
0.202743
0.202818
0.202888
0.202951
0.203003
0.20304
0.20306
0.206765
0.20677
0.206781
0.206799
0.206825
0.20686
0.206902
0.206953
0.20701
0.207074
0.207142
0.207213
0.207286
0.207357
0.207425
0.207488
0.207543
0.207587
0.207618
0.207634
0.210871
0.210879
0.210895
0.21092
0.210954
0.210996
0.211045
0.211102
0.211165
0.211232
0.211302
0.211373
0.211444
0.211512
0.211575
0.211632
0.211682
0.211721
0.211748
0.211762
0.214497
0.214507
0.214527
0.214556
0.214595
0.214643
0.214699
0.214761
0.214827
0.214897
0.214969
0.21504
0.215109
0.215175
0.215235
0.215288
0.215333
0.215369
0.215393
0.215406
0.217603
0.217614
0.217636
0.21767
0.217713
0.217765
0.217825
0.21789
0.21796
0.218032
0.218105
0.218176
0.218245
0.218308
0.218366
0.218417
0.21846
0.218493
0.218515
0.218527
0.220149
0.220161
0.220185
0.220221
0.220267
0.220322
0.220385
0.220453
0.220525
0.220599
0.220673
0.220744
0.220812
0.220875
0.220931
0.22098
0.221021
0.221052
0.221074
0.221085
0.222097
0.22211
0.222135
0.222173
0.222221
0.222278
0.222343
0.222414
0.222487
0.222562
0.222636
0.222708
0.222776
0.222838
0.222893
0.22294
0.22298
0.22301
0.223031
0.223041
0.223417
0.22343
0.223456
0.223495
0.223544
0.223603
0.223669
0.223741
0.223815
0.223891
0.223966
0.224037
0.224105
0.224166
0.224221
0.224267
0.224306
0.224335
0.224356
0.224366
0.224084
0.224097
0.224124
0.224163
0.224213
0.224272
0.224339
0.224411
0.224486
0.224562
0.224637
0.224709
0.224776
0.224837
0.224891
0.224938
0.224976
0.225005
0.225025
0.225035
0.141409
0.139968
0.138676
0.137933
0.137319
0.136877
0.1366
0.136397
0.136355
0.136311
0.136307
0.136323
0.13644
0.136734
0.13713
0.137567
0.138129
0.138912
0.140168
0.14158
0.140382
0.136798
0.13484
0.134527
0.133805
0.133289
0.13309
0.132805
0.132981
0.132876
0.132838
0.132742
0.132795
0.133222
0.133715
0.134026
0.134498
0.135098
0.136944
0.140366
0.143559
0.139945
0.137931
0.137649
0.136988
0.136629
0.136479
0.13612
0.136252
0.136163
0.136262
0.136156
0.136125
0.136482
0.136968
0.13738
0.13781
0.138242
0.140035
0.143786
0.151791
0.150534
0.149374
0.148795
0.148361
0.148193
0.148027
0.14776
0.147669
0.147661
0.147845
0.147861
0.147863
0.148035
0.148378
0.148893
0.149323
0.14977
0.150769
0.152381
0.16004
0.159551
0.15899
0.158575
0.158258
0.158047
0.157892
0.157767
0.157716
0.157719
0.15778
0.157844
0.157944
0.158123
0.158382
0.158709
0.159067
0.159485
0.16004
0.160592
0.167557
0.167342
0.16705
0.166783
0.166564
0.1664
0.166285
0.16621
0.166182
0.166194
0.166243
0.166319
0.166431
0.166591
0.166797
0.167042
0.167317
0.167618
0.167933
0.168171
0.17452
0.174416
0.174257
0.174094
0.173952
0.173842
0.173765
0.173723
0.173714
0.173737
0.173789
0.173867
0.173974
0.174112
0.174279
0.174469
0.174674
0.174883
0.175072
0.175194
0.181024
0.18097
0.180884
0.180789
0.180703
0.180637
0.180594
0.180577
0.180586
0.180619
0.180675
0.180752
0.180851
0.18097
0.181106
0.181255
0.181408
0.181555
0.181676
0.181748
0.187124
0.187097
0.187051
0.187
0.186955
0.186923
0.186908
0.186912
0.186935
0.186977
0.187036
0.187112
0.187203
0.187306
0.18742
0.187538
0.187655
0.187761
0.187844
0.18789
0.192849
0.192837
0.192816
0.192794
0.192777
0.192771
0.192777
0.192798
0.192833
0.192883
0.192945
0.193019
0.193103
0.193195
0.193291
0.193388
0.193479
0.193559
0.193619
0.193651
0.198206
0.198203
0.198198
0.198195
0.198199
0.198211
0.198234
0.198268
0.198313
0.198369
0.198434
0.198507
0.198586
0.198669
0.198753
0.198834
0.198908
0.19897
0.199016
0.19904
0.203184
0.203187
0.203192
0.203203
0.203221
0.203247
0.203282
0.203327
0.20338
0.203441
0.203509
0.203582
0.203657
0.203733
0.203808
0.203878
0.20394
0.203992
0.204028
0.204047
0.20776
0.207766
0.207779
0.207799
0.207827
0.207864
0.207909
0.207962
0.208021
0.208087
0.208157
0.208229
0.208302
0.208374
0.208442
0.208504
0.208559
0.208602
0.208633
0.208649
0.2119
0.211909
0.211926
0.211953
0.211989
0.212033
0.212086
0.212145
0.21221
0.212279
0.212351
0.212423
0.212494
0.212562
0.212626
0.212683
0.212732
0.212771
0.212798
0.212812
0.215563
0.215574
0.215595
0.215626
0.215668
0.215718
0.215776
0.215841
0.21591
0.215982
0.216055
0.216127
0.216197
0.216264
0.216324
0.216378
0.216422
0.216458
0.216482
0.216495
0.218706
0.218718
0.218742
0.218777
0.218823
0.218877
0.21894
0.219008
0.21908
0.219155
0.219229
0.219302
0.219371
0.219436
0.219494
0.219545
0.219587
0.21962
0.219642
0.219654
0.221286
0.221299
0.221325
0.221362
0.221411
0.221469
0.221535
0.221606
0.221681
0.221757
0.221832
0.221905
0.221974
0.222037
0.222094
0.222143
0.222183
0.222214
0.222236
0.222247
0.223263
0.223276
0.223303
0.223343
0.223393
0.223454
0.223522
0.223595
0.223671
0.223749
0.223825
0.223898
0.223967
0.224029
0.224085
0.224132
0.224171
0.224201
0.224222
0.224232
0.224603
0.224616
0.224644
0.224685
0.224737
0.224799
0.224868
0.224943
0.22502
0.225098
0.225175
0.225248
0.225316
0.225378
0.225433
0.22548
0.225518
0.225548
0.225567
0.225578
0.22528
0.225294
0.225322
0.225363
0.225416
0.225478
0.225549
0.225624
0.225702
0.22578
0.225857
0.22593
0.225998
0.22606
0.226115
0.226161
0.226199
0.226228
0.226248
0.226258
0.145096
0.143768
0.142547
0.141853
0.14131
0.140957
0.140718
0.140503
0.140443
0.140415
0.140464
0.140486
0.140569
0.14082
0.141197
0.141649
0.142168
0.142852
0.144017
0.145417
0.143857
0.140609
0.138621
0.138231
0.137607
0.137368
0.137227
0.13681
0.136853
0.136786
0.137002
0.136908
0.136823
0.137104
0.137579
0.138122
0.138565
0.138938
0.140625
0.144286
0.147223
0.143871
0.14199
0.141731
0.141132
0.1408
0.140665
0.140343
0.140472
0.140397
0.140487
0.140392
0.140372
0.140712
0.141167
0.141544
0.141936
0.142344
0.14403
0.147504
0.155166
0.153656
0.152695
0.152347
0.151904
0.15149
0.151307
0.151226
0.151315
0.15128
0.151181
0.151194
0.151349
0.151666
0.151987
0.152169
0.152541
0.153123
0.154155
0.155389
0.162861
0.162355
0.161855
0.161509
0.161212
0.160978
0.160832
0.160751
0.16074
0.16074
0.160757
0.160818
0.160943
0.161143
0.161384
0.161639
0.161961
0.162373
0.1629
0.163375
0.170023
0.169817
0.169554
0.169319
0.16912
0.168966
0.168862
0.168804
0.16879
0.168805
0.168848
0.168923
0.169038
0.169197
0.169391
0.169611
0.169864
0.170146
0.170438
0.170652
0.176732
0.176636
0.176494
0.176349
0.176222
0.176123
0.176058
0.176025
0.176024
0.17605
0.176103
0.176181
0.176287
0.176422
0.17658
0.176758
0.176948
0.177143
0.177318
0.17743
0.183066
0.183018
0.182941
0.182857
0.182783
0.182726
0.182692
0.182682
0.182696
0.182733
0.18279
0.182868
0.182966
0.183082
0.183213
0.183354
0.183499
0.183636
0.183749
0.183816
0.189066
0.189042
0.189003
0.18896
0.188922
0.188898
0.188889
0.188899
0.188927
0.188972
0.189034
0.18911
0.189201
0.189302
0.189412
0.189526
0.189637
0.189737
0.189815
0.189859
0.194748
0.194737
0.194721
0.194705
0.194694
0.194693
0.194705
0.194731
0.194771
0.194824
0.194889
0.194964
0.195048
0.195139
0.195233
0.195327
0.195415
0.195491
0.195548
0.195579
0.200105
0.200103
0.200101
0.200103
0.200112
0.200129
0.200157
0.200196
0.200245
0.200304
0.200372
0.200447
0.200526
0.200609
0.200691
0.200771
0.200843
0.200903
0.200947
0.20097
0.205116
0.20512
0.205128
0.205142
0.205165
0.205196
0.205236
0.205285
0.205343
0.205407
0.205478
0.205552
0.205628
0.205705
0.205779
0.205848
0.205909
0.205959
0.205995
0.206013
0.209748
0.209755
0.209771
0.209794
0.209827
0.209868
0.209918
0.209975
0.210039
0.210109
0.210181
0.210256
0.21033
0.210402
0.21047
0.210532
0.210586
0.210628
0.210658
0.210674
0.213958
0.213968
0.213988
0.214019
0.214059
0.214108
0.214166
0.21423
0.214299
0.214372
0.214447
0.214522
0.214594
0.214664
0.214727
0.214784
0.214832
0.21487
0.214897
0.21491
0.217699
0.217711
0.217735
0.21777
0.217816
0.217871
0.217935
0.218004
0.218078
0.218154
0.218231
0.218306
0.218378
0.218445
0.218505
0.218559
0.218603
0.218638
0.218661
0.218674
0.220919
0.220933
0.220959
0.220998
0.221049
0.221109
0.221177
0.221251
0.221328
0.221407
0.221485
0.22156
0.221631
0.221697
0.221755
0.221806
0.221848
0.22188
0.221902
0.221913
0.22357
0.223584
0.223613
0.223655
0.223708
0.223772
0.223844
0.223921
0.224001
0.224081
0.22416
0.224236
0.224307
0.224371
0.224428
0.224477
0.224517
0.224547
0.224568
0.224579
0.225605
0.22562
0.22565
0.225694
0.22575
0.225816
0.22589
0.22597
0.226052
0.226134
0.226214
0.22629
0.22636
0.226424
0.22648
0.226527
0.226565
0.226595
0.226615
0.226625
0.226987
0.227002
0.227033
0.227078
0.227136
0.227204
0.227279
0.22736
0.227443
0.227526
0.227607
0.227683
0.227753
0.227816
0.227871
0.227918
0.227955
0.227984
0.228003
0.228013
0.227686
0.227702
0.227733
0.227778
0.227837
0.227906
0.227982
0.228063
0.228147
0.228231
0.228311
0.228388
0.228458
0.228521
0.228575
0.228621
0.228658
0.228686
0.228706
0.228715
0.151834
0.1511
0.150296
0.149722
0.149286
0.148984
0.148774
0.148618
0.148554
0.148541
0.148578
0.148632
0.148743
0.14896
0.149273
0.149657
0.150112
0.150693
0.151487
0.152253
0.152335
0.151172
0.150158
0.149624
0.149189
0.148912
0.148725
0.148544
0.148505
0.148491
0.148551
0.14858
0.148656
0.14888
0.14921
0.149597
0.150023
0.150562
0.151531
0.152773
0.155003
0.153489
0.152416
0.152018
0.151591
0.151316
0.151159
0.150979
0.150997
0.150973
0.151024
0.15103
0.151098
0.151345
0.151676
0.15201
0.152387
0.15285
0.153864
0.155429
0.160868
0.160147
0.159502
0.15912
0.158789
0.158533
0.158378
0.158287
0.158285
0.158281
0.158292
0.158341
0.158462
0.158678
0.158939
0.159204
0.159544
0.159998
0.16066
0.161346
0.167287
0.166965
0.1666
0.16631
0.16607
0.165884
0.165763
0.165698
0.165684
0.165695
0.165729
0.165798
0.165918
0.166093
0.166306
0.166543
0.166826
0.167167
0.167559
0.167877
0.173709
0.173558
0.173353
0.173161
0.172997
0.172871
0.172787
0.172743
0.172737
0.172759
0.172807
0.172885
0.172997
0.173144
0.173321
0.17352
0.173742
0.173984
0.174219
0.174382
0.179977
0.179902
0.179788
0.17967
0.179566
0.179486
0.179436
0.179415
0.179423
0.179455
0.179511
0.17959
0.179694
0.179821
0.179968
0.18013
0.180301
0.180471
0.18062
0.180713
0.186051
0.186013
0.185951
0.185884
0.185826
0.185783
0.185761
0.185761
0.185782
0.185824
0.185885
0.185964
0.18606
0.186171
0.186294
0.186425
0.186557
0.18668
0.18678
0.186838
0.191914
0.191895
0.191865
0.191833
0.191807
0.191793
0.191794
0.191812
0.191847
0.191897
0.191962
0.19204
0.192129
0.192228
0.192333
0.19244
0.192543
0.192635
0.192706
0.192745
0.197545
0.197538
0.197528
0.19752
0.197518
0.197526
0.197546
0.197579
0.197625
0.197683
0.197751
0.197828
0.197912
0.198001
0.198093
0.198182
0.198265
0.198336
0.198389
0.198418
0.202916
0.202917
0.20292
0.202928
0.202944
0.202969
0.203004
0.20305
0.203105
0.20317
0.203241
0.203318
0.203398
0.20348
0.203561
0.203638
0.203707
0.203764
0.203805
0.203827
0.207989
0.207995
0.208007
0.208027
0.208056
0.208094
0.208141
0.208197
0.208261
0.208331
0.208405
0.208482
0.20856
0.208637
0.20871
0.208777
0.208837
0.208884
0.208918
0.208936
0.212715
0.212725
0.212744
0.212773
0.212812
0.21286
0.212917
0.212982
0.213052
0.213127
0.213204
0.213281
0.213357
0.21343
0.213498
0.213559
0.213611
0.213652
0.213681
0.213696
0.217041
0.217053
0.217077
0.217113
0.21716
0.217217
0.217282
0.217353
0.217429
0.217508
0.217588
0.217666
0.21774
0.217811
0.217874
0.217931
0.217978
0.218014
0.21804
0.218053
0.220907
0.220921
0.220949
0.22099
0.221043
0.221106
0.221178
0.221255
0.221336
0.221418
0.2215
0.221579
0.221653
0.221721
0.221782
0.221834
0.221878
0.221911
0.221934
0.221946
0.224251
0.224267
0.224298
0.224343
0.224401
0.224469
0.224546
0.224628
0.224713
0.224798
0.224882
0.224961
0.225035
0.225101
0.22516
0.22521
0.22525
0.225281
0.225302
0.225313
0.227015
0.227031
0.227065
0.227113
0.227175
0.227247
0.227328
0.227414
0.227502
0.227589
0.227674
0.227754
0.227827
0.227893
0.22795
0.227998
0.228036
0.228065
0.228085
0.228095
0.229143
0.229161
0.229195
0.229246
0.229311
0.229386
0.22947
0.229558
0.229649
0.229738
0.229824
0.229904
0.229977
0.230042
0.230098
0.230144
0.230181
0.230209
0.230228
0.230237
0.230591
0.230609
0.230645
0.230697
0.230764
0.230841
0.230927
0.231017
0.231109
0.231199
0.231286
0.231366
0.231439
0.231503
0.231558
0.231603
0.231639
0.231666
0.231684
0.231694
0.231325
0.231343
0.23138
0.231433
0.2315
0.231578
0.231665
0.231756
0.231848
0.231939
0.232026
0.232107
0.232179
0.232243
0.232298
0.232343
0.232378
0.232405
0.232422
0.232431
0.159308
0.158936
0.15846
0.158053
0.157729
0.15749
0.157323
0.157211
0.157161
0.157158
0.157197
0.157268
0.157388
0.157577
0.157832
0.158143
0.158509
0.158942
0.159431
0.159821
0.160335
0.159873
0.15935
0.158951
0.158637
0.15841
0.158253
0.158143
0.158102
0.158102
0.158144
0.15821
0.158322
0.15851
0.158764
0.159067
0.159419
0.159844
0.160376
0.160861
0.16293
0.162427
0.161913
0.16156
0.16127
0.161061
0.160921
0.160824
0.1608
0.160803
0.160844
0.160906
0.161015
0.161202
0.161444
0.161722
0.162045
0.162436
0.16296
0.16348
0.167319
0.166998
0.16663
0.166339
0.166101
0.16592
0.165801
0.165732
0.165716
0.165727
0.165766
0.165836
0.165953
0.166125
0.166338
0.166579
0.166862
0.167199
0.167591
0.167917
0.172603
0.172424
0.17219
0.171977
0.171799
0.171662
0.171571
0.171524
0.171516
0.171536
0.171583
0.17166
0.171773
0.171926
0.172109
0.172317
0.172552
0.172814
0.173078
0.173268
0.178267
0.17817
0.178028
0.177887
0.177764
0.17767
0.17761
0.177583
0.177587
0.177617
0.177671
0.177751
0.177858
0.177992
0.178149
0.178323
0.178511
0.178705
0.178881
0.178994
0.184059
0.184007
0.183925
0.183838
0.183762
0.183705
0.183673
0.183666
0.183684
0.183723
0.183783
0.183863
0.183963
0.184082
0.184216
0.18436
0.184508
0.184651
0.18477
0.184841
0.189855
0.189827
0.189783
0.189736
0.189697
0.189671
0.189663
0.189675
0.189705
0.189754
0.189818
0.189898
0.189992
0.190098
0.190212
0.190331
0.190448
0.190555
0.190639
0.190687
0.19558
0.195568
0.195549
0.19553
0.195518
0.195517
0.19553
0.195558
0.195601
0.195657
0.195726
0.195805
0.195894
0.195989
0.196088
0.196188
0.196282
0.196364
0.196426
0.19646
0.201178
0.201176
0.201173
0.201174
0.201183
0.201202
0.201233
0.201275
0.201329
0.201392
0.201465
0.201544
0.201629
0.201716
0.201804
0.201888
0.201965
0.202031
0.202078
0.202104
0.206595
0.206599
0.206608
0.206624
0.206649
0.206684
0.206729
0.206783
0.206846
0.206917
0.206993
0.207073
0.207154
0.207236
0.207314
0.207388
0.207453
0.207506
0.207545
0.207565
0.211771
0.21178
0.211798
0.211825
0.211863
0.21191
0.211967
0.212032
0.212104
0.21218
0.21226
0.21234
0.21242
0.212496
0.212569
0.212634
0.21269
0.212736
0.212767
0.212784
0.216643
0.216655
0.21668
0.216716
0.216764
0.216822
0.216889
0.216963
0.217042
0.217124
0.217206
0.217287
0.217366
0.217439
0.217506
0.217566
0.217616
0.217655
0.217682
0.217696
0.221141
0.221155
0.221185
0.221229
0.221285
0.221352
0.221427
0.221509
0.221594
0.221681
0.221766
0.221848
0.221926
0.221997
0.22206
0.222115
0.22216
0.222195
0.222219
0.222231
0.225189
0.225206
0.22524
0.225289
0.225352
0.225427
0.225509
0.225597
0.225688
0.225779
0.225867
0.225951
0.226027
0.226097
0.226157
0.226208
0.22625
0.226281
0.226302
0.226313
0.228713
0.228732
0.228769
0.228824
0.228892
0.228973
0.229061
0.229155
0.22925
0.229345
0.229435
0.229519
0.229596
0.229664
0.229722
0.22977
0.229808
0.229837
0.229856
0.229866
0.23164
0.231661
0.231701
0.231759
0.231832
0.231917
0.232011
0.232109
0.232208
0.232305
0.232397
0.232482
0.232558
0.232625
0.232681
0.232727
0.232763
0.23279
0.232808
0.232817
0.233904
0.233925
0.233967
0.234028
0.234105
0.234193
0.234291
0.234392
0.234494
0.234593
0.234687
0.234772
0.234848
0.234914
0.234969
0.235013
0.235047
0.235072
0.235089
0.235097
0.235448
0.23547
0.235513
0.235576
0.235655
0.235746
0.235846
0.23595
0.236054
0.236154
0.236248
0.236334
0.23641
0.236475
0.236529
0.236572
0.236605
0.236629
0.236645
0.236652
0.236232
0.236254
0.236298
0.236362
0.236442
0.236535
0.236635
0.23674
0.236845
0.236946
0.237041
0.237127
0.237203
0.237267
0.23732
0.237363
0.237395
0.237419
0.237434
0.237441
0.16665
0.16646
0.166187
0.165921
0.165696
0.165523
0.165401
0.165325
0.165294
0.165303
0.165347
0.165425
0.165542
0.165704
0.165911
0.166157
0.166436
0.166739
0.167037
0.167242
0.167761
0.167555
0.167276
0.167017
0.166801
0.166637
0.166522
0.166451
0.166425
0.166436
0.166482
0.166558
0.166672
0.166833
0.167036
0.167275
0.167545
0.167842
0.168146
0.168368
0.170134
0.169931
0.169669
0.169435
0.16924
0.169091
0.16899
0.16893
0.168913
0.168929
0.168976
0.169052
0.169164
0.169319
0.169512
0.169735
0.169986
0.170262
0.170551
0.170769
0.173768
0.173618
0.173414
0.173222
0.17306
0.172936
0.172854
0.172809
0.172803
0.172825
0.172874
0.172952
0.173063
0.173209
0.173385
0.173585
0.173807
0.174046
0.174281
0.174445
0.178292
0.178195
0.178054
0.177912
0.17779
0.177697
0.177637
0.17761
0.177614
0.177644
0.177699
0.177778
0.177885
0.178019
0.178175
0.17835
0.178538
0.178731
0.178906
0.17902
0.183367
0.183309
0.183218
0.183124
0.183041
0.182979
0.182943
0.182934
0.18295
0.182988
0.183048
0.183129
0.18323
0.183352
0.183489
0.183638
0.183793
0.183943
0.184071
0.184148
0.188762
0.188729
0.188676
0.18862
0.188571
0.188539
0.188526
0.188534
0.188562
0.18861
0.188674
0.188755
0.188851
0.188961
0.189081
0.189207
0.189332
0.189449
0.189542
0.189596
0.194327
0.194311
0.194284
0.194257
0.194237
0.19423
0.194238
0.194262
0.194303
0.194359
0.194427
0.194509
0.1946
0.1947
0.194805
0.194912
0.195014
0.195104
0.195174
0.195213
0.199957
0.199951
0.199944
0.199939
0.199942
0.199956
0.199982
0.200022
0.200074
0.200138
0.200211
0.200292
0.20038
0.200472
0.200565
0.200656
0.20074
0.200812
0.200866
0.200895
0.205568
0.20557
0.205576
0.205588
0.205609
0.205641
0.205684
0.205737
0.2058
0.205871
0.205948
0.20603
0.206115
0.206201
0.206284
0.206363
0.206434
0.206493
0.206535
0.206557
0.211082
0.21109
0.211106
0.211132
0.211168
0.211215
0.211271
0.211337
0.211409
0.211487
0.211569
0.211652
0.211735
0.211815
0.211892
0.211961
0.212022
0.212071
0.212106
0.212124
0.216422
0.216435
0.216459
0.216496
0.216544
0.216604
0.216672
0.216749
0.21683
0.216915
0.217
0.217085
0.217167
0.217243
0.217314
0.217376
0.217429
0.217471
0.2175
0.217515
0.221506
0.221522
0.221553