# vtk DataFile Version 2.0
Pressure 3D1D coupled problem
ASCII
DATASET UNSTRUCTURED_GRID
POINTS 9261 float
0 0 0
0 0 0.1
0 0 0.2
0 0 0.3
0 0 0.4
0 0 0.5
0 0 0.6
0 0 0.7
0 0 0.8
0 0 0.9
0 0 1
0 0 1.1
0 0 1.2
0 0 1.3
0 0 1.4
0 0 1.5
0 0 1.6
0 0 1.7
0 0 1.8
0 0 1.9
0 0 2
0 0.1 0
0 0.1 0.1
0 0.1 0.2
0 0.1 0.3
0 0.1 0.4
0 0.1 0.5
0 0.1 0.6
0 0.1 0.7
0 0.1 0.8
0 0.1 0.9
0 0.1 1
0 0.1 1.1
0 0.1 1.2
0 0.1 1.3
0 0.1 1.4
0 0.1 1.5
0 0.1 1.6
0 0.1 1.7
0 0.1 1.8
0 0.1 1.9
0 0.1 2
0 0.2 0
0 0.2 0.1
0 0.2 0.2
0 0.2 0.3
0 0.2 0.4
0 0.2 0.5
0 0.2 0.6
0 0.2 0.7
0 0.2 0.8
0 0.2 0.9
0 0.2 1
0 0.2 1.1
0 0.2 1.2
0 0.2 1.3
0 0.2 1.4
0 0.2 1.5
0 0.2 1.6
0 0.2 1.7
0 0.2 1.8
0 0.2 1.9
0 0.2 2
0 0.3 0
0 0.3 0.1
0 0.3 0.2
0 0.3 0.3
0 0.3 0.4
0 0.3 0.5
0 0.3 0.6
0 0.3 0.7
0 0.3 0.8
0 0.3 0.9
0 0.3 1
0 0.3 1.1
0 0.3 1.2
0 0.3 1.3
0 0.3 1.4
0 0.3 1.5
0 0.3 1.6
0 0.3 1.7
0 0.3 1.8
0 0.3 1.9
0 0.3 2
0 0.4 0
0 0.4 0.1
0 0.4 0.2
0 0.4 0.3
0 0.4 0.4
0 0.4 0.5
0 0.4 0.6
0 0.4 0.7
0 0.4 0.8
0 0.4 0.9
0 0.4 1
0 0.4 1.1
0 0.4 1.2
0 0.4 1.3
0 0.4 1.4
0 0.4 1.5
0 0.4 1.6
0 0.4 1.7
0 0.4 1.8
0 0.4 1.9
0 0.4 2
0 0.5 0
0 0.5 0.1
0 0.5 0.2
0 0.5 0.3
0 0.5 0.4
0 0.5 0.5
0 0.5 0.6
0 0.5 0.7
0 0.5 0.8
0 0.5 0.9
0 0.5 1
0 0.5 1.1
0 0.5 1.2
0 0.5 1.3
0 0.5 1.4
0 0.5 1.5
0 0.5 1.6
0 0.5 1.7
0 0.5 1.8
0 0.5 1.9
0 0.5 2
0 0.6 0
0 0.6 0.1
0 0.6 0.2
0 0.6 0.3
0 0.6 0.4
0 0.6 0.5
0 0.6 0.6
0 0.6 0.7
0 0.6 0.8
0 0.6 0.9
0 0.6 1
0 0.6 1.1
0 0.6 1.2
0 0.6 1.3
0 0.6 1.4
0 0.6 1.5
0 0.6 1.6
0 0.6 1.7
0 0.6 1.8
0 0.6 1.9
0 0.6 2
0 0.7 0
0 0.7 0.1
0 0.7 0.2
0 0.7 0.3
0 0.7 0.4
0 0.7 0.5
0 0.7 0.6
0 0.7 0.7
0 0.7 0.8
0 0.7 0.9
0 0.7 1
0 0.7 1.1
0 0.7 1.2
0 0.7 1.3
0 0.7 1.4
0 0.7 1.5
0 0.7 1.6
0 0.7 1.7
0 0.7 1.8
0 0.7 1.9
0 0.7 2
0 0.8 0
0 0.8 0.1
0 0.8 0.2
0 0.8 0.3
0 0.8 0.4
0 0.8 0.5
0 0.8 0.6
0 0.8 0.7
0 0.8 0.8
0 0.8 0.9
0 0.8 1
0 0.8 1.1
0 0.8 1.2
0 0.8 1.3
0 0.8 1.4
0 0.8 1.5
0 0.8 1.6
0 0.8 1.7
0 0.8 1.8
0 0.8 1.9
0 0.8 2
0 0.9 0
0 0.9 0.1
0 0.9 0.2
0 0.9 0.3
0 0.9 0.4
0 0.9 0.5
0 0.9 0.6
0 0.9 0.7
0 0.9 0.8
0 0.9 0.9
0 0.9 1
0 0.9 1.1
0 0.9 1.2
0 0.9 1.3
0 0.9 1.4
0 0.9 1.5
0 0.9 1.6
0 0.9 1.7
0 0.9 1.8
0 0.9 1.9
0 0.9 2
0 1 0
0 1 0.1
0 1 0.2
0 1 0.3
0 1 0.4
0 1 0.5
0 1 0.6
0 1 0.7
0 1 0.8
0 1 0.9
0 1 1
0 1 1.1
0 1 1.2
0 1 1.3
0 1 1.4
0 1 1.5
0 1 1.6
0 1 1.7
0 1 1.8
0 1 1.9
0 1 2
0 1.1 0
0 1.1 0.1
0 1.1 0.2
0 1.1 0.3
0 1.1 0.4
0 1.1 0.5
0 1.1 0.6
0 1.1 0.7
0 1.1 0.8
0 1.1 0.9
0 1.1 1
0 1.1 1.1
0 1.1 1.2
0 1.1 1.3
0 1.1 1.4
0 1.1 1.5
0 1.1 1.6
0 1.1 1.7
0 1.1 1.8
0 1.1 1.9
0 1.1 2
0 1.2 0
0 1.2 0.1
0 1.2 0.2
0 1.2 0.3
0 1.2 0.4
0 1.2 0.5
0 1.2 0.6
0 1.2 0.7
0 1.2 0.8
0 1.2 0.9
0 1.2 1
0 1.2 1.1
0 1.2 1.2
0 1.2 1.3
0 1.2 1.4
0 1.2 1.5
0 1.2 1.6
0 1.2 1.7
0 1.2 1.8
0 1.2 1.9
0 1.2 2
0 1.3 0
0 1.3 0.1
0 1.3 0.2
0 1.3 0.3
0 1.3 0.4
0 1.3 0.5
0 1.3 0.6
0 1.3 0.7
0 1.3 0.8
0 1.3 0.9
0 1.3 1
0 1.3 1.1
0 1.3 1.2
0 1.3 1.3
0 1.3 1.4
0 1.3 1.5
0 1.3 1.6
0 1.3 1.7
0 1.3 1.8
0 1.3 1.9
0 1.3 2
0 1.4 0
0 1.4 0.1
0 1.4 0.2
0 1.4 0.3
0 1.4 0.4
0 1.4 0.5
0 1.4 0.6
0 1.4 0.7
0 1.4 0.8
0 1.4 0.9
0 1.4 1
0 1.4 1.1
0 1.4 1.2
0 1.4 1.3
0 1.4 1.4
0 1.4 1.5
0 1.4 1.6
0 1.4 1.7
0 1.4 1.8
0 1.4 1.9
0 1.4 2
0 1.5 0
0 1.5 0.1
0 1.5 0.2
0 1.5 0.3
0 1.5 0.4
0 1.5 0.5
0 1.5 0.6
0 1.5 0.7
0 1.5 0.8
0 1.5 0.9
0 1.5 1
0 1.5 1.1
0 1.5 1.2
0 1.5 1.3
0 1.5 1.4
0 1.5 1.5
0 1.5 1.6
0 1.5 1.7
0 1.5 1.8
0 1.5 1.9
0 1.5 2
0 1.6 0
0 1.6 0.1
0 1.6 0.2
0 1.6 0.3
0 1.6 0.4
0 1.6 0.5
0 1.6 0.6
0 1.6 0.7
0 1.6 0.8
0 1.6 0.9
0 1.6 1
0 1.6 1.1
0 1.6 1.2
0 1.6 1.3
0 1.6 1.4
0 1.6 1.5
0 1.6 1.6
0 1.6 1.7
0 1.6 1.8
0 1.6 1.9
0 1.6 2
0 1.7 0
0 1.7 0.1
0 1.7 0.2
0 1.7 0.3
0 1.7 0.4
0 1.7 0.5
0 1.7 0.6
0 1.7 0.7
0 1.7 0.8
0 1.7 0.9
0 1.7 1
0 1.7 1.1
0 1.7 1.2
0 1.7 1.3
0 1.7 1.4
0 1.7 1.5
0 1.7 1.6
0 1.7 1.7
0 1.7 1.8
0 1.7 1.9
0 1.7 2
0 1.8 0
0 1.8 0.1
0 1.8 0.2
0 1.8 0.3
0 1.8 0.4
0 1.8 0.5
0 1.8 0.6
0 1.8 0.7
0 1.8 0.8
0 1.8 0.9
0 1.8 1
0 1.8 1.1
0 1.8 1.2
0 1.8 1.3
0 1.8 1.4
0 1.8 1.5
0 1.8 1.6
0 1.8 1.7
0 1.8 1.8
0 1.8 1.9
0 1.8 2
0 1.9 0
0 1.9 0.1
0 1.9 0.2
0 1.9 0.3
0 1.9 0.4
0 1.9 0.5
0 1.9 0.6
0 1.9 0.7
0 1.9 0.8
0 1.9 0.9
0 1.9 1
0 1.9 1.1
0 1.9 1.2
0 1.9 1.3
0 1.9 1.4
0 1.9 1.5
0 1.9 1.6
0 1.9 1.7
0 1.9 1.8
0 1.9 1.9
0 1.9 2
0 2 0
0 2 0.1
0 2 0.2
0 2 0.3
0 2 0.4
0 2 0.5
0 2 0.6
0 2 0.7
0 2 0.8
0 2 0.9
0 2 1
0 2 1.1
0 2 1.2
0 2 1.3
0 2 1.4
0 2 1.5
0 2 1.6
0 2 1.7
0 2 1.8
0 2 1.9
0 2 2
0.1 0 0
0.1 0 0.1
0.1 0 0.2
0.1 0 0.3
0.1 0 0.4
0.1 0 0.5
0.1 0 0.6
0.1 0 0.7
0.1 0 0.8
0.1 0 0.9
0.1 0 1
0.1 0 1.1
0.1 0 1.2
0.1 0 1.3
0.1 0 1.4
0.1 0 1.5
0.1 0 1.6
0.1 0 1.7
0.1 0 1.8
0.1 0 1.9
0.1 0 2
0.1 0.1 0
0.1 0.1 0.1
0.1 0.1 0.2
0.1 0.1 0.3
0.1 0.1 0.4
0.1 0.1 0.5
0.1 0.1 0.6
0.1 0.1 0.7
0.1 0.1 0.8
0.1 0.1 0.9
0.1 0.1 1
0.1 0.1 1.1
0.1 0.1 1.2
0.1 0.1 1.3
0.1 0.1 1.4
0.1 0.1 1.5
0.1 0.1 1.6
0.1 0.1 1.7
0.1 0.1 1.8
0.1 0.1 1.9
0.1 0.1 2
0.1 0.2 0
0.1 0.2 0.1
0.1 0.2 0.2
0.1 0.2 0.3
0.1 0.2 0.4
0.1 0.2 0.5
0.1 0.2 0.6
0.1 0.2 0.7
0.1 0.2 0.8
0.1 0.2 0.9
0.1 0.2 1
0.1 0.2 1.1
0.1 0.2 1.2
0.1 0.2 1.3
0.1 0.2 1.4
0.1 0.2 1.5
0.1 0.2 1.6
0.1 0.2 1.7
0.1 0.2 1.8
0.1 0.2 1.9
0.1 0.2 2
0.1 0.3 0
0.1 0.3 0.1
0.1 0.3 0.2
0.1 0.3 0.3
0.1 0.3 0.4
0.1 0.3 0.5
0.1 0.3 0.6
0.1 0.3 0.7
0.1 0.3 0.8
0.1 0.3 0.9
0.1 0.3 1
0.1 0.3 1.1
0.1 0.3 1.2
0.1 0.3 1.3
0.1 0.3 1.4
0.1 0.3 1.5
0.1 0.3 1.6
0.1 0.3 1.7
0.1 0.3 1.8
0.1 0.3 1.9
0.1 0.3 2
0.1 0.4 0
0.1 0.4 0.1
0.1 0.4 0.2
0.1 0.4 0.3
0.1 0.4 0.4
0.1 0.4 0.5
0.1 0.4 0.6
0.1 0.4 0.7
0.1 0.4 0.8
0.1 0.4 0.9
0.1 0.4 1
0.1 0.4 1.1
0.1 0.4 1.2
0.1 0.4 1.3
0.1 0.4 1.4
0.1 0.4 1.5
0.1 0.4 1.6
0.1 0.4 1.7
0.1 0.4 1.8
0.1 0.4 1.9
0.1 0.4 2
0.1 0.5 0
0.1 0.5 0.1
0.1 0.5 0.2
0.1 0.5 0.3
0.1 0.5 0.4
0.1 0.5 0.5
0.1 0.5 0.6
0.1 0.5 0.7
0.1 0.5 0.8
0.1 0.5 0.9
0.1 0.5 1
0.1 0.5 1.1
0.1 0.5 1.2
0.1 0.5 1.3
0.1 0.5 1.4
0.1 0.5 1.5
0.1 0.5 1.6
0.1 0.5 1.7
0.1 0.5 1.8
0.1 0.5 1.9
0.1 0.5 2
0.1 0.6 0
0.1 0.6 0.1
0.1 0.6 0.2
0.1 0.6 0.3
0.1 0.6 0.4
0.1 0.6 0.5
0.1 0.6 0.6
0.1 0.6 0.7
0.1 0.6 0.8
0.1 0.6 0.9
0.1 0.6 1
0.1 0.6 1.1
0.1 0.6 1.2
0.1 0.6 1.3
0.1 0.6 1.4
0.1 0.6 1.5
0.1 0.6 1.6
0.1 0.6 1.7
0.1 0.6 1.8
0.1 0.6 1.9
0.1 0.6 2
0.1 0.7 0
0.1 0.7 0.1
0.1 0.7 0.2
0.1 0.7 0.3
0.1 0.7 0.4
0.1 0.7 0.5
0.1 0.7 0.6
0.1 0.7 0.7
0.1 0.7 0.8
0.1 0.7 0.9
0.1 0.7 1
0.1 0.7 1.1
0.1 0.7 1.2
0.1 0.7 1.3
0.1 0.7 1.4
0.1 0.7 1.5
0.1 0.7 1.6
0.1 0.7 1.7
0.1 0.7 1.8
0.1 0.7 1.9
0.1 0.7 2
0.1 0.8 0
0.1 0.8 0.1
0.1 0.8 0.2
0.1 0.8 0.3
0.1 0.8 0.4
0.1 0.8 0.5
0.1 0.8 0.6
0.1 0.8 0.7
0.1 0.8 0.8
0.1 0.8 0.9
0.1 0.8 1
0.1 0.8 1.1
0.1 0.8 1.2
0.1 0.8 1.3
0.1 0.8 1.4
0.1 0.8 1.5
0.1 0.8 1.6
0.1 0.8 1.7
0.1 0.8 1.8
0.1 0.8 1.9
0.1 0.8 2
0.1 0.9 0
0.1 0.9 0.1
0.1 0.9 0.2
0.1 0.9 0.3
0.1 0.9 0.4
0.1 0.9 0.5
0.1 0.9 0.6
0.1 0.9 0.7
0.1 0.9 0.8
0.1 0.9 0.9
0.1 0.9 1
0.1 0.9 1.1
0.1 0.9 1.2
0.1 0.9 1.3
0.1 0.9 1.4
0.1 0.9 1.5
0.1 0.9 1.6
0.1 0.9 1.7
0.1 0.9 1.8
0.1 0.9 1.9
0.1 0.9 2
0.1 1 0
0.1 1 0.1
0.1 1 0.2
0.1 1 0.3
0.1 1 0.4
0.1 1 0.5
0.1 1 0.6
0.1 1 0.7
0.1 1 0.8
0.1 1 0.9
0.1 1 1
0.1 1 1.1
0.1 1 1.2
0.1 1 1.3
0.1 1 1.4
0.1 1 1.5
0.1 1 1.6
0.1 1 1.7
0.1 1 1.8
0.1 1 1.9
0.1 1 2
0.1 1.1 0
0.1 1.1 0.1
0.1 1.1 0.2
0.1 1.1 0.3
0.1 1.1 0.4
0.1 1.1 0.5
0.1 1.1 0.6
0.1 1.1 0.7
0.1 1.1 0.8
0.1 1.1 0.9
0.1 1.1 1
0.1 1.1 1.1
0.1 1.1 1.2
0.1 1.1 1.3
0.1 1.1 1.4
0.1 1.1 1.5
0.1 1.1 1.6
0.1 1.1 1.7
0.1 1.1 1.8
0.1 1.1 1.9
0.1 1.1 2
0.1 1.2 0
0.1 1.2 0.1
0.1 1.2 0.2
0.1 1.2 0.3
0.1 1.2 0.4
0.1 1.2 0.5
0.1 1.2 0.6
0.1 1.2 0.7
0.1 1.2 0.8
0.1 1.2 0.9
0.1 1.2 1
0.1 1.2 1.1
0.1 1.2 1.2
0.1 1.2 1.3
0.1 1.2 1.4
0.1 1.2 1.5
0.1 1.2 1.6
0.1 1.2 1.7
0.1 1.2 1.8
0.1 1.2 1.9
0.1 1.2 2
0.1 1.3 0
0.1 1.3 0.1
0.1 1.3 0.2
0.1 1.3 0.3
0.1 1.3 0.4
0.1 1.3 0.5
0.1 1.3 0.6
0.1 1.3 0.7
0.1 1.3 0.8
0.1 1.3 0.9
0.1 1.3 1
0.1 1.3 1.1
0.1 1.3 1.2
0.1 1.3 1.3
0.1 1.3 1.4
0.1 1.3 1.5
0.1 1.3 1.6
0.1 1.3 1.7
0.1 1.3 1.8
0.1 1.3 1.9
0.1 1.3 2
0.1 1.4 0
0.1 1.4 0.1
0.1 1.4 0.2
0.1 1.4 0.3
0.1 1.4 0.4
0.1 1.4 0.5
0.1 1.4 0.6
0.1 1.4 0.7
0.1 1.4 0.8
0.1 1.4 0.9
0.1 1.4 1
0.1 1.4 1.1
0.1 1.4 1.2
0.1 1.4 1.3
0.1 1.4 1.4
0.1 1.4 1.5
0.1 1.4 1.6
0.1 1.4 1.7
0.1 1.4 1.8
0.1 1.4 1.9
0.1 1.4 2
0.1 1.5 0
0.1 1.5 0.1
0.1 1.5 0.2
0.1 1.5 0.3
0.1 1.5 0.4
0.1 1.5 0.5
0.1 1.5 0.6
0.1 1.5 0.7
0.1 1.5 0.8
0.1 1.5 0.9
0.1 1.5 1
0.1 1.5 1.1
0.1 1.5 1.2
0.1 1.5 1.3
0.1 1.5 1.4
0.1 1.5 1.5
0.1 1.5 1.6
0.1 1.5 1.7
0.1 1.5 1.8
0.1 1.5 1.9
0.1 1.5 2
0.1 1.6 0
0.1 1.6 0.1
0.1 1.6 0.2
0.1 1.6 0.3
0.1 1.6 0.4
0.1 1.6 0.5
0.1 1.6 0.6
0.1 1.6 0.7
0.1 1.6 0.8
0.1 1.6 0.9
0.1 1.6 1
0.1 1.6 1.1
0.1 1.6 1.2
0.1 1.6 1.3
0.1 1.6 1.4
0.1 1.6 1.5
0.1 1.6 1.6
0.1 1.6 1.7
0.1 1.6 1.8
0.1 1.6 1.9
0.1 1.6 2
0.1 1.7 0
0.1 1.7 0.1
0.1 1.7 0.2
0.1 1.7 0.3
0.1 1.7 0.4
0.1 1.7 0.5
0.1 1.7 0.6
0.1 1.7 0.7
0.1 1.7 0.8
0.1 1.7 0.9
0.1 1.7 1
0.1 1.7 1.1
0.1 1.7 1.2
0.1 1.7 1.3
0.1 1.7 1.4
0.1 1.7 1.5
0.1 1.7 1.6
0.1 1.7 1.7
0.1 1.7 1.8
0.1 1.7 1.9
0.1 1.7 2
0.1 1.8 0
0.1 1.8 0.1
0.1 1.8 0.2
0.1 1.8 0.3
0.1 1.8 0.4
0.1 1.8 0.5
0.1 1.8 0.6
0.1 1.8 0.7
0.1 1.8 0.8
0.1 1.8 0.9
0.1 1.8 1
0.1 1.8 1.1
0.1 1.8 1.2
0.1 1.8 1.3
0.1 1.8 1.4
0.1 1.8 1.5
0.1 1.8 1.6
0.1 1.8 1.7
0.1 1.8 1.8
0.1 1.8 1.9
0.1 1.8 2
0.1 1.9 0
0.1 1.9 0.1
0.1 1.9 0.2
0.1 1.9 0.3
0.1 1.9 0.4
0.1 1.9 0.5
0.1 1.9 0.6
0.1 1.9 0.7
0.1 1.9 0.8
0.1 1.9 0.9
0.1 1.9 1
0.1 1.9 1.1
0.1 1.9 1.2
0.1 1.9 1.3
0.1 1.9 1.4
0.1 1.9 1.5
0.1 1.9 1.6
0.1 1.9 1.7
0.1 1.9 1.8
0.1 1.9 1.9
0.1 1.9 2
0.1 2 0
0.1 2 0.1
0.1 2 0.2
0.1 2 0.3
0.1 2 0.4
0.1 2 0.5
0.1 2 0.6
0.1 2 0.7
0.1 2 0.8
0.1 2 0.9
0.1 2 1
0.1 2 1.1
0.1 2 1.2
0.1 2 1.3
0.1 2 1.4
0.1 2 1.5
0.1 2 1.6
0.1 2 1.7
0.1 2 1.8
0.1 2 1.9
0.1 2 2
0.2 0 0
0.2 0 0.1
0.2 0 0.2
0.2 0 0.3
0.2 0 0.4
0.2 0 0.5
0.2 0 0.6
0.2 0 0.7
0.2 0 0.8
0.2 0 0.9
0.2 0 1
0.2 0 1.1
0.2 0 1.2
0.2 0 1.3
0.2 0 1.4
0.2 0 1.5
0.2 0 1.6
0.2 0 1.7
0.2 0 1.8
0.2 0 1.9
0.2 0 2
0.2 0.1 0
0.2 0.1 0.1
0.2 0.1 0.2
0.2 0.1 0.3
0.2 0.1 0.4
0.2 0.1 0.5
0.2 0.1 0.6
0.2 0.1 0.7
0.2 0.1 0.8
0.2 0.1 0.9
0.2 0.1 1
0.2 0.1 1.1
0.2 0.1 1.2
0.2 0.1 1.3
0.2 0.1 1.4
0.2 0.1 1.5
0.2 0.1 1.6
0.2 0.1 1.7
0.2 0.1 1.8
0.2 0.1 1.9
0.2 0.1 2
0.2 0.2 0
0.2 0.2 0.1
0.2 0.2 0.2
0.2 0.2 0.3
0.2 0.2 0.4
0.2 0.2 0.5
0.2 0.2 0.6
0.2 0.2 0.7
0.2 0.2 0.8
0.2 0.2 0.9
0.2 0.2 1
0.2 0.2 1.1
0.2 0.2 1.2
0.2 0.2 1.3
0.2 0.2 1.4
0.2 0.2 1.5
0.2 0.2 1.6
0.2 0.2 1.7
0.2 0.2 1.8
0.2 0.2 1.9
[...]
CELL_DATA 8000
SCALARS Phi_sigma_(3D) float 1
LOOKUP_TABLE default
0.108942
0.108116
0.107211
0.106551
0.106039
0.105667
0.105419
0.105258
0.105191
0.105154
0.105148
0.10518
0.105291
0.105517
0.105829
0.106206
0.106697
0.107363
0.108251
0.109057
0.109549
0.108342
0.107267
0.106654
0.106145
0.105776
0.105547
0.105382
0.10535
0.105311
0.105301
0.10531
0.105405
0.105647
0.105971
0.106323
0.106783
0.107431
0.108476
0.10965
0.112552
0.111376
0.110339
0.109773
0.109315
0.109004
0.108804
0.108636
0.1086
0.108572
0.108592
0.108602
0.108676
0.108893
0.109202
0.109553
0.109976
0.110555
0.111551
0.112748
0.118206
0.117555
0.116845
0.116352
0.115991
0.115757
0.115588
0.115444
0.115381
0.115371
0.115419
0.115459
0.115533
0.1157
0.115961
0.116296
0.116673
0.117146
0.117831
0.118545
0.124683
0.124356
0.12394
0.123591
0.123321
0.123131
0.122994
0.122895
0.122849
0.122847
0.122885
0.122941
0.123031
0.123179
0.12339
0.123654
0.123959
0.124318
0.124739
0.125094
0.131104
0.130939
0.130703
0.130477
0.13029
0.130149
0.130048
0.129983
0.129956
0.129963
0.13
0.130062
0.130154
0.130284
0.130454
0.130659
0.13089
0.131143
0.131397
0.131578
0.137238
0.137152
0.13702
0.136881
0.136759
0.136664
0.136598
0.136559
0.136549
0.136565
0.136606
0.136669
0.136755
0.136868
0.137005
0.137163
0.137335
0.137509
0.137666
0.137766
0.143051
0.143005
0.142932
0.142851
0.142777
0.14272
0.142682
0.142666
0.142671
0.142696
0.14274
0.142802
0.142882
0.142978
0.14309
0.143213
0.14334
0.143462
0.143563
0.143623
0.148553
0.148529
0.14849
0.148447
0.148408
0.14838
0.148366
0.148367
0.148385
0.148418
0.148465
0.148526
0.148599
0.148682
0.148775
0.148871
0.148967
0.149055
0.149123
0.149162
0.153755
0.153744
0.153726
0.153708
0.153693
0.153687
0.153691
0.153707
0.153736
0.153775
0.153825
0.153884
0.153952
0.154025
0.154103
0.154181
0.154256
0.15432
0.154369
0.154396
0.158655
0.158652
0.158648
0.158645
0.158648
0.158658
0.158677
0.158704
0.158741
0.158786
0.158839
0.158897
0.15896
0.159026
0.159093
0.159158
0.159218
0.159268
0.159305
0.159325
0.163235
0.163237
0.163242
0.163251
0.163266
0.163288
0.163318
0.163355
0.163398
0.163448
0.163502
0.163561
0.163621
0.163681
0.163741
0.163796
0.163846
0.163887
0.163916
0.163931
0.167468
0.167473
0.167484
0.167501
0.167525
0.167556
0.167594
0.167638
0.167687
0.167741
0.167797
0.167855
0.167913
0.16797
0.168024
0.168073
0.168116
0.16815
0.168174
0.168187
0.171315
0.171322
0.171337
0.17136
0.171391
0.171428
0.171472
0.171522
0.171576
0.171632
0.17169
0.171748
0.171805
0.171859
0.171909
0.171954
0.171992
0.172022
0.172043
0.172053
0.174731
0.17474
0.174759
0.174786
0.174821
0.174864
0.174913
0.174967
0.175024
0.175083
0.175143
0.175201
0.175257
0.175309
0.175356
0.175398
0.175432
0.175459
0.175478
0.175488
0.177672
0.177682
0.177703
0.177733
0.177772
0.177818
0.177871
0.177928
0.177989
0.17805
0.17811
0.178169
0.178224
0.178275
0.17832
0.178359
0.178392
0.178417
0.178434
0.178443
0.180091
0.180102
0.180124
0.180157
0.180198
0.180248
0.180303
0.180363
0.180425
0.180488
0.18055
0.180608
0.180663
0.180713
0.180757
0.180795
0.180825
0.180849
0.180865
0.180873
0.181948
0.181959
0.181983
0.182017
0.18206
0.182112
0.182169
0.182231
0.182295
0.182358
0.18242
0.182479
0.182534
0.182583
0.182626
0.182663
0.182692
0.182715
0.18273
0.182738
0.183207
0.183219
0.183243
0.183278
0.183323
0.183376
0.183435
0.183498
0.183562
0.183627
0.183689
0.183748
0.183803
0.183851
0.183894
0.18393
0.183959
0.183981
0.183995
0.184003
0.183845
0.183857
0.183881
0.183917
0.183962
0.184015
0.184075
0.184138
0.184203
0.184268
0.184331
0.18439
0.184444
0.184493
0.184535
0.18457
0.184599
0.18462
0.184635
0.184643
0.109637
0.108448
0.107383
0.106772
0.106267
0.105903
0.105675
0.105508
0.105472
0.105434
0.105428
0.105439
0.105532
0.105771
0.106094
0.10645
0.106909
0.107551
0.108586
0.10975
0.10885
0.10589
0.104274
0.104017
0.103422
0.102997
0.102832
0.102597
0.102742
0.102653
0.10262
0.102537
0.102578
0.102927
0.103329
0.103582
0.103967
0.104458
0.10598
0.108807
0.111593
0.108607
0.106943
0.106712
0.106167
0.105871
0.105748
0.105451
0.10556
0.105484
0.105564
0.105473
0.105445
0.105736
0.106132
0.106468
0.106819
0.107172
0.108651
0.111752
0.118577
0.117539
0.116581
0.116104
0.115748
0.11561
0.115474
0.115253
0.115177
0.11517
0.115321
0.11533
0.115329
0.115467
0.115746
0.116167
0.116518
0.116884
0.117706
0.119039
0.125634
0.12523
0.124768
0.124427
0.124167
0.123994
0.123867
0.123764
0.123722
0.123723
0.123772
0.123822
0.123901
0.124045
0.124256
0.124522
0.124813
0.125155
0.125611
0.126066
0.13214
0.131963
0.131723
0.131505
0.131325
0.131192
0.131097
0.131036
0.131013
0.131022
0.131061
0.131122
0.131211
0.13134
0.131506
0.131705
0.131928
0.132174
0.132431
0.132626
0.138242
0.138156
0.138027
0.137894
0.137778
0.137688
0.137627
0.137592
0.137585
0.137603
0.137645
0.137708
0.137793
0.137904
0.138038
0.138192
0.138357
0.138527
0.138681
0.138781
0.144012
0.143968
0.143898
0.143821
0.143752
0.143699
0.143665
0.143652
0.14366
0.143686
0.143731
0.143794
0.143873
0.143968
0.144078
0.144197
0.144321
0.144439
0.144537
0.144596
0.149489
0.149467
0.14943
0.14939
0.149354
0.149329
0.149318
0.149323
0.149343
0.149377
0.149425
0.149486
0.149559
0.149642
0.149733
0.149827
0.149921
0.150006
0.150073
0.15011
0.154686
0.154676
0.154661
0.154644
0.154633
0.154629
0.154636
0.154654
0.154685
0.154726
0.154777
0.154837
0.154904
0.154977
0.155054
0.155131
0.155204
0.155267
0.155315
0.155341
0.1596
0.159597
0.159595
0.159595
0.1596
0.159612
0.159633
0.159663
0.159701
0.159748
0.159802
0.159861
0.159924
0.15999
0.160057
0.160121
0.160179
0.160229
0.160265
0.160284
0.164208
0.164211
0.164217
0.164228
0.164245
0.164269
0.164301
0.16434
0.164385
0.164436
0.164492
0.164551
0.164612
0.164672
0.164731
0.164787
0.164835
0.164876
0.164904
0.164919
0.168478
0.168484
0.168496
0.168515
0.168541
0.168574
0.168614
0.16866
0.168711
0.168766
0.168824
0.168883
0.168942
0.168999
0.169052
0.169101
0.169143
0.169177
0.169201
0.169213
0.172368
0.172376
0.172392
0.172417
0.172449
0.172489
0.172536
0.172588
0.172643
0.172702
0.172761
0.17282
0.172878
0.172932
0.172982
0.173026
0.173064
0.173094
0.173114
0.173125
0.17583
0.175839
0.175859
0.175888
0.175925
0.175971
0.176022
0.176078
0.176138
0.176199
0.17626
0.176319
0.176376
0.176428
0.176475
0.176517
0.176551
0.176578
0.176596
0.176606
0.178814
0.178825
0.178847
0.178879
0.17892
0.17897
0.179025
0.179085
0.179147
0.17921
0.179273
0.179332
0.179388
0.179439
0.179485
0.179524
0.179556
0.17958
0.179597
0.179606
0.181273
0.181285
0.181308
0.181343
0.181387
0.181439
0.181497
0.18156
0.181625
0.181689
0.181753
0.181813
0.181868
0.181918
0.181962
0.182
0.18203
0.182053
0.182069
0.182077
0.183162
0.183174
0.183199
0.183235
0.183281
0.183336
0.183396
0.183461
0.183527
0.183593
0.183657
0.183717
0.183772
0.183822
0.183865
0.183901
0.18393
0.183952
0.183967
0.183975
0.184445
0.184457
0.184483
0.18452
0.184567
0.184623
0.184685
0.184751
0.184818
0.184885
0.184949
0.185009
0.185064
0.185113
0.185156
0.185191
0.18522
0.185241
0.185256
0.185263
0.185094
0.185107
0.185133
0.18517
0.185218
0.185275
0.185337
0.185403
0.185471
0.185538
0.185603
0.185663
0.185718
0.185767
0.185809
0.185844
0.185872
0.185893
0.185908
0.185915
0.112801
0.111704
0.110697
0.110126
0.109679
0.109389
0.109192
0.109015
0.108964
0.10894
0.108979
0.108994
0.109059
0.109262
0.109569
0.109938
0.110362
0.110923
0.111882
0.113038
0.111839
0.109155
0.107513
0.107192
0.106678
0.106482
0.106366
0.106022
0.106057
0.105999
0.106176
0.106095
0.106021
0.10625
0.106638
0.107082
0.107443
0.107747
0.109138
0.112165
0.114748
0.111975
0.110421
0.110209
0.109714
0.109441
0.10933
0.109064
0.10917
0.109106
0.109179
0.109097
0.109077
0.109355
0.109727
0.110034
0.110353
0.110686
0.112078
0.114951
0.121507
0.120258
0.119464
0.119179
0.118815
0.118473
0.118323
0.118257
0.11833
0.1183
0.118215
0.118224
0.118348
0.118607
0.118868
0.119014
0.119317
0.119794
0.120645
0.121664
0.128122
0.127704
0.127292
0.127008
0.126764
0.126572
0.126452
0.126386
0.126377
0.126376
0.126388
0.126436
0.126537
0.126698
0.126893
0.127099
0.127362
0.127699
0.128132
0.128523
0.134354
0.134185
0.133969
0.133776
0.133613
0.133487
0.133403
0.133356
0.133344
0.133356
0.13339
0.13345
0.133542
0.13367
0.133826
0.134004
0.134209
0.134439
0.134678
0.134853
0.140268
0.140189
0.140073
0.139955
0.139852
0.139772
0.139719
0.139693
0.139692
0.139714
0.139756
0.139818
0.139904
0.140011
0.140139
0.140282
0.140436
0.140594
0.140736
0.140827
0.145922
0.145882
0.14582
0.145753
0.145693
0.145648
0.145622
0.145615
0.145627
0.145657
0.145704
0.145766
0.145844
0.145937
0.146042
0.146156
0.146272
0.146382
0.146474
0.146528
0.151343
0.151324
0.151293
0.151259
0.15123
0.151212
0.151207
0.151216
0.15124
0.151277
0.151328
0.151389
0.151462
0.151543
0.151631
0.151721
0.15181
0.15189
0.151953
0.151988
0.156534
0.156526
0.156514
0.156503
0.156496
0.156498
0.15651
0.156533
0.156567
0.156611
0.156664
0.156725
0.156793
0.156865
0.15694
0.157014
0.157084
0.157144
0.15719
0.157214
0.161479
0.161478
0.161478
0.161482
0.161492
0.161509
0.161534
0.161568
0.161611
0.16166
0.161716
0.161776
0.16184
0.161906
0.161971
0.162034
0.162091
0.162138
0.162172
0.162191
0.166146
0.16615
0.166159
0.166173
0.166195
0.166223
0.166259
0.166302
0.166352
0.166406
0.166464
0.166525
0.166586
0.166647
0.166705
0.166759
0.166807
0.166846
0.166873
0.166888
0.170495
0.170502
0.170516
0.170539
0.170569
0.170606
0.170651
0.170701
0.170756
0.170815
0.170875
0.170936
0.170996
0.171053
0.171106
0.171154
0.171196
0.171228
0.171251
0.171263
0.174474
0.174484
0.174503
0.174531
0.174568
0.174612
0.174663
0.17472
0.17478
0.174842
0.174904
0.174965
0.175023
0.175078
0.175128
0.175172
0.175208
0.175237
0.175257
0.175267
0.17803
0.178041
0.178063
0.178096
0.178138
0.178188
0.178245
0.178306
0.17837
0.178435
0.178498
0.17856
0.178618
0.178671
0.178718
0.178759
0.178792
0.178818
0.178835
0.178844
0.181106
0.181118
0.181143
0.181179
0.181225
0.181279
0.18134
0.181405
0.181472
0.181539
0.181605
0.181667
0.181724
0.181776
0.181821
0.181859
0.18189
0.181914
0.18193
0.181938
0.183646
0.18366
0.183686
0.183725
0.183774
0.183832
0.183896
0.183964
0.184033
0.184102
0.184169
0.184231
0.184288
0.184339
0.184382
0.184419
0.184449
0.184471
0.184486
0.184493
0.185602
0.185616
0.185644
0.185684
0.185736
0.185796
0.185862
0.185933
0.186004
0.186074
0.186142
0.186204
0.186261
0.186311
0.186354
0.186389
0.186417
0.186438
0.186452
0.18646
0.186932
0.186947
0.186975
0.187017
0.18707
0.187132
0.1872
0.187271
0.187344
0.187415
0.187483
0.187546
0.187602
0.187652
0.187694
0.187728
0.187756
0.187776
0.187789
0.187796
0.187606
0.187621
0.18765
0.187692
0.187745
0.187808
0.187877
0.187949
0.188022
0.188094
0.188162
0.188225
0.188281
0.18833
0.188372
0.188406
0.188433
0.188453
0.188466
0.188473
0.118542
0.117937
0.117274
0.116802
0.116444
0.116195
0.116023
0.115894
0.115841
0.115829
0.115858
0.1159
0.115988
0.116163
0.116418
0.11673
0.117101
0.117578
0.118231
0.118862
0.119027
0.118066
0.11723
0.11679
0.116432
0.116205
0.116051
0.115902
0.115869
0.115856
0.115904
0.115925
0.115985
0.116166
0.116435
0.11675
0.117097
0.117539
0.118336
0.119361
0.121371
0.120118
0.119232
0.118905
0.118553
0.118327
0.118198
0.11805
0.118065
0.118044
0.118084
0.118086
0.118139
0.118339
0.118609
0.11888
0.119187
0.119566
0.120403
0.121696
0.12643
0.125834
0.125302
0.124988
0.124716
0.124506
0.124379
0.124304
0.124302
0.124298
0.124305
0.124343
0.12444
0.124615
0.124826
0.125041
0.125318
0.12569
0.126235
0.1268
0.132012
0.131747
0.131446
0.131209
0.131012
0.13086
0.130761
0.130708
0.130697
0.130704
0.130731
0.130786
0.130882
0.131023
0.131195
0.131387
0.131617
0.131896
0.132217
0.132479
0.137661
0.137537
0.137369
0.137212
0.137079
0.136976
0.136908
0.136873
0.136868
0.136886
0.136924
0.136986
0.137076
0.137194
0.137336
0.137497
0.137677
0.137874
0.138066
0.138199
0.143244
0.143182
0.143089
0.142994
0.14291
0.142846
0.142806
0.14279
0.142796
0.142823
0.142868
0.142931
0.143014
0.143116
0.143234
0.143364
0.143502
0.14364
0.143761
0.143836
0.14872
0.148689
0.14864
0.148587
0.14854
0.148507
0.148491
0.148492
0.148511
0.148545
0.148594
0.148658
0.148735
0.148824
0.148923
0.149027
0.149133
0.149232
0.149312
0.149359
0.154069
0.154055
0.154031
0.154007
0.153988
0.153979
0.153982
0.153999
0.154028
0.15407
0.154123
0.154186
0.154257
0.154336
0.15442
0.154505
0.154587
0.154661
0.154717
0.154748
0.159263
0.159259
0.159252
0.159247
0.159248
0.159258
0.159277
0.159307
0.159346
0.159394
0.15945
0.159513
0.15958
0.159651
0.159723
0.159794
0.15986
0.159916
0.159957
0.15998
0.164266
0.164268
0.164273
0.164282
0.164298
0.164322
0.164354
0.164395
0.164442
0.164496
0.164555
0.164618
0.164682
0.164747
0.164811
0.164871
0.164925
0.164969
0.165002
0.165019
0.169033
0.169039
0.169052
0.169071
0.169099
0.169134
0.169177
0.169226
0.169281
0.16934
0.169401
0.169464
0.169527
0.169587
0.169645
0.169697
0.169743
0.169779
0.169805
0.169819
0.173509
0.173518
0.173536
0.173564
0.1736
0.173644
0.173696
0.173753
0.173814
0.173877
0.173941
0.174004
0.174065
0.174123
0.174176
0.174222
0.174262
0.174293
0.174315
0.174326
0.177632
0.177644
0.177666
0.1777
0.177743
0.177795
0.177853
0.177917
0.177983
0.17805
0.178117
0.17818
0.178241
0.178296
0.178345
0.178388
0.178423
0.17845
0.178469
0.178478
0.181337
0.181351
0.181377
0.181415
0.181464
0.181522
0.181586
0.181655
0.181726
0.181796
0.181864
0.181929
0.181988
0.182042
0.182088
0.182128
0.18216
0.182184
0.1822
0.182209
0.184557
0.184572
0.184601
0.184643
0.184697
0.184759
0.184828
0.184901
0.184976
0.185049
0.185119
0.185184
0.185243
0.185295
0.18534
0.185377
0.185406
0.185428
0.185443
0.18545
0.187227
0.187243
0.187274
0.187319
0.187376
0.187443
0.187516
0.187592
0.18767
0.187745
0.187816
0.187882
0.187941
0.187992
0.188035
0.18807
0.188097
0.188118
0.188131
0.188138
0.189289
0.189305
0.189338
0.189386
0.189445
0.189515
0.189591
0.18967
0.189749
0.189826
0.189899
0.189965
0.190023
0.190073
0.190115
0.190149
0.190175
0.190194
0.190206
0.190213
0.190694
0.190711
0.190745
0.190794
0.190855
0.190926
0.191004
0.191085
0.191166
0.191244
0.191317
0.191383
0.191442
0.191491
0.191532
0.191565
0.19159
0.191608
0.19162
0.191626
0.191406
0.191424
0.191458
0.191508
0.19157
0.191642
0.191721
0.191803
0.191884
0.191963
0.192036
0.192103
0.192161
0.19221
0.192251
0.192283
0.192307
0.192325
0.192337
0.192342
0.124949
0.124642
0.12425
0.123916
0.12365
0.123454
0.123317
0.123225
0.123184
0.12318
0.123211
0.123267
0.123363
0.123515
0.123721
0.123974
0.124272
0.124626
0.125028
0.125348
0.125876
0.125495
0.125064
0.124737
0.124479
0.124293
0.124164
0.124074
0.124039
0.124038
0.124071
0.124123
0.124213
0.124364
0.12457
0.124816
0.125103
0.12545
0.125888
0.126287
0.128177
0.127762
0.127338
0.127048
0.126811
0.126639
0.126524
0.126445
0.126425
0.126427
0.126459
0.126507
0.126595
0.126745
0.126942
0.127167
0.127429
0.127749
0.128179
0.128609
0.132038
0.131773
0.13147
0.131232
0.131037
0.130889
0.130792
0.130736
0.130723
0.130731
0.130761
0.130817
0.13091
0.131049
0.131221
0.131416
0.131646
0.131921
0.132243
0.132511
0.136713
0.136566
0.136373
0.136199
0.136054
0.135942
0.135869
0.135831
0.135824
0.135841
0.135878
0.135939
0.13603
0.136152
0.1363
0.136468
0.136659
0.136871
0.137088
0.137243
0.141773
0.141693
0.141578
0.141463
0.141363
0.141288
0.141239
0.141218
0.141222
0.141246
0.14129
0.141354
0.14144
0.141547
0.141673
0.141813
0.141965
0.142122
0.142265
0.142358
0.147006
0.146963
0.146897
0.146827
0.146767
0.146722
0.146697
0.146693
0.146708
0.14674
0.146789
0.146854
0.146934
0.147029
0.147136
0.147251
0.14737
0.147485
0.147582
0.14764
0.152302
0.15228
0.152246
0.152209
0.152179
0.15216
0.152156
0.152167
0.152194
0.152234
0.152286
0.152351
0.152426
0.15251
0.152602
0.152696
0.15279
0.152875
0.152943
0.152981
0.157592
0.157583
0.157569
0.157556
0.157549
0.157551
0.157565
0.15759
0.157627
0.157674
0.157731
0.157795
0.157866
0.157942
0.158021
0.158099
0.158173
0.158238
0.158288
0.158315
0.162819
0.162818
0.162818
0.162822
0.162833
0.162852
0.16288
0.162918
0.162964
0.163018
0.163078
0.163142
0.16321
0.163279
0.163348
0.163414
0.163475
0.163526
0.163563
0.163583
0.167923
0.167928
0.167938
0.167955
0.167979
0.168012
0.168053
0.168101
0.168156
0.168216
0.168279
0.168344
0.168409
0.168473
0.168535
0.168592
0.168642
0.168683
0.168712
0.168728
0.172842
0.172851
0.172868
0.172895
0.17293
0.172975
0.173026
0.173084
0.173146
0.173211
0.173277
0.173343
0.173407
0.173467
0.173523
0.173573
0.173616
0.17365
0.173674
0.173686
0.177505
0.177517
0.17754
0.177575
0.17762
0.177673
0.177734
0.1778
0.177869
0.177939
0.178008
0.178074
0.178137
0.178195
0.178246
0.178291
0.178328
0.178357
0.178376
0.178387
0.181837
0.181851
0.181879
0.18192
0.181973
0.182034
0.182103
0.182176
0.182251
0.182325
0.182397
0.182464
0.182526
0.182582
0.18263
0.18267
0.182703
0.182728
0.182744
0.182753
0.185757
0.185773
0.185805
0.185852
0.18591
0.185979
0.186054
0.186133
0.186213
0.186291
0.186366
0.186434
0.186496
0.186549
0.186595
0.186632
0.186661
0.186682
0.186697
0.186704
0.189183
0.189201
0.189237
0.189288
0.189352
0.189426
0.189507
0.189592
0.189676
0.189758
0.189834
0.189903
0.189964
0.190016
0.190059
0.190094
0.19012
0.190139
0.190151
0.190158
0.192039
0.192058
0.192096
0.192151
0.19222
0.192299
0.192384
0.192473
0.192561
0.192645
0.192723
0.192793
0.192854
0.192905
0.192946
0.192978
0.193002
0.193019
0.19303
0.193035
0.194252
0.194273
0.194313
0.194371
0.194443
0.194525
0.194614
0.194706
0.194797
0.194883
0.194962
0.195033
0.195093
0.195143
0.195183
0.195213
0.195235
0.195251
0.19526
0.195265
0.195765
0.195786
0.195828
0.195887
0.195961
0.196046
0.196138
0.196232
0.196324
0.196412
0.196492
0.196563
0.196623
0.196672
0.196711
0.19674
0.196761
0.196775
0.196784
0.196788
0.196534
0.196555
0.196597
0.196658
0.196733
0.196819
0.196912
0.197007
0.1971
0.197188
0.197269
0.19734
0.1974
0.197449
0.197487
0.197515
0.197536
0.197549
0.197557
0.197562
0.131301
0.131144
0.13092
0.130702
0.130518
0.130377
0.130277
0.130215
0.130189
0.130196
0.130231
0.130292
0.130386
0.130517
0.130684
0.130883
0.131109
0.131357
0.1316
0.131769
0.132307
0.132138
0.131908
0.131697
0.13152
0.131385
0.131291
0.131233
0.131212
0.13122
0.131257
0.131317
0.131409
0.131538
0.131702
0.131895
0.132115
0.132357
0.132606
0.132788
0.134444
0.134277
0.134062
0.13387
0.133711
0.13359
0.133507
0.133458
0.133444
0.133456
0.133494
0.133554
0.133644
0.133769
0.133925
0.134105
0.134308
0.134534
0.13477
0.134949
0.137709
0.137586
0.137418
0.137262
0.13713
0.137029
0.136962
0.136927
0.136921
0.136939
0.136979
0.137041
0.137129
0.137246
0.137388
0.13755
0.137729
0.137924
0.138115
0.13825
0.141793
0.141714
0.141598
0.141483
0.141384
0.141309
0.141261
0.14124
0.141244
0.141268
0.141312
0.141376
0.141461
0.141569
0.141695
0.141835
0.141987
0.142143
0.142286
0.142378
0.146412
0.146365
0.146292
0.146216
0.14615
0.146101
0.146073
0.146067
0.14608
0.146112
0.146161
0.146225
0.146307
0.146404
0.146514
0.146633
0.146758
0.146879
0.146982
0.147045
0.151372
0.151345
0.151303
0.151259
0.151221
0.151197
0.151189
0.151197
0.151222
0.151261
0.151313
0.151379
0.151456
0.151543
0.151639
0.15174
0.15184
0.151933
0.152008
0.152051
0.156539
0.156527
0.156507
0.156487
0.156474
0.156471
0.15648
0.156503
0.156538
0.156584
0.156641
0.156706
0.15678
0.156859
0.156943
0.157027
0.157108
0.15718
0.157235
0.157266
0.16182
0.161817
0.161813
0.161812
0.161818
0.161833
0.161858
0.161894
0.161939
0.161993
0.162053
0.162119
0.162189
0.162262
0.162336
0.162407
0.162473
0.162529
0.162571
0.162594
0.167133
0.167136
0.167143
0.167157
0.167179
0.167209
0.167249
0.167296
0.167351
0.167411
0.167475
0.167542
0.16761
0.167678
0.167743
0.167804
0.167859
0.167904
0.167937
0.167954
0.172399
0.172407
0.172423
0.172449
0.172484
0.172528
0.172579
0.172638
0.172701
0.172768
0.172836
0.172904
0.17297
0.173033
0.173092
0.173145
0.173191
0.173228
0.173254
0.173268
0.177538
0.17755
0.177574
0.177609
0.177655
0.177711
0.177774
0.177842
0.177913
0.177986
0.178058
0.178127
0.178192
0.178252
0.178306
0.178352
0.178391
0.178422
0.178443
0.178454