# vtk DataFile Version 2.0
Pressure 3D1D coupled problem
ASCII
DATASET UNSTRUCTURED_GRID
POINTS 9261 float
0 0 0
0 0 0.1
0 0 0.2
0 0 0.3
0 0 0.4
0 0 0.5
0 0 0.6
0 0 0.7
0 0 0.8
0 0 0.9
0 0 1
0 0 1.1
0 0 1.2
0 0 1.3
0 0 1.4
0 0 1.5
0 0 1.6
0 0 1.7
0 0 1.8
0 0 1.9
0 0 2
0 0.1 0
0 0.1 0.1
0 0.1 0.2
0 0.1 0.3
0 0.1 0.4
0 0.1 0.5
0 0.1 0.6
0 0.1 0.7
0 0.1 0.8
0 0.1 0.9
0 0.1 1
0 0.1 1.1
0 0.1 1.2
0 0.1 1.3
0 0.1 1.4
0 0.1 1.5
0 0.1 1.6
0 0.1 1.7
0 0.1 1.8
0 0.1 1.9
0 0.1 2
0 0.2 0
0 0.2 0.1
0 0.2 0.2
0 0.2 0.3
0 0.2 0.4
0 0.2 0.5
0 0.2 0.6
0 0.2 0.7
0 0.2 0.8
0 0.2 0.9
0 0.2 1
0 0.2 1.1
0 0.2 1.2
0 0.2 1.3
0 0.2 1.4
0 0.2 1.5
0 0.2 1.6
0 0.2 1.7
0 0.2 1.8
0 0.2 1.9
0 0.2 2
0 0.3 0
0 0.3 0.1
0 0.3 0.2
0 0.3 0.3
0 0.3 0.4
0 0.3 0.5
0 0.3 0.6
0 0.3 0.7
0 0.3 0.8
0 0.3 0.9
0 0.3 1
0 0.3 1.1
0 0.3 1.2
0 0.3 1.3
0 0.3 1.4
0 0.3 1.5
0 0.3 1.6
0 0.3 1.7
0 0.3 1.8
0 0.3 1.9
0 0.3 2
0 0.4 0
0 0.4 0.1
0 0.4 0.2
0 0.4 0.3
0 0.4 0.4
0 0.4 0.5
0 0.4 0.6
0 0.4 0.7
0 0.4 0.8
0 0.4 0.9
0 0.4 1
0 0.4 1.1
0 0.4 1.2
0 0.4 1.3
0 0.4 1.4
0 0.4 1.5
0 0.4 1.6
0 0.4 1.7
0 0.4 1.8
0 0.4 1.9
0 0.4 2
0 0.5 0
0 0.5 0.1
0 0.5 0.2
0 0.5 0.3
0 0.5 0.4
0 0.5 0.5
0 0.5 0.6
0 0.5 0.7
0 0.5 0.8
0 0.5 0.9
0 0.5 1
0 0.5 1.1
0 0.5 1.2
0 0.5 1.3
0 0.5 1.4
0 0.5 1.5
0 0.5 1.6
0 0.5 1.7
0 0.5 1.8
0 0.5 1.9
0 0.5 2
0 0.6 0
0 0.6 0.1
0 0.6 0.2
0 0.6 0.3
0 0.6 0.4
0 0.6 0.5
0 0.6 0.6
0 0.6 0.7
0 0.6 0.8
0 0.6 0.9
0 0.6 1
0 0.6 1.1
0 0.6 1.2
0 0.6 1.3
0 0.6 1.4
0 0.6 1.5
0 0.6 1.6
0 0.6 1.7
0 0.6 1.8
0 0.6 1.9
0 0.6 2
0 0.7 0
0 0.7 0.1
0 0.7 0.2
0 0.7 0.3
0 0.7 0.4
0 0.7 0.5
0 0.7 0.6
0 0.7 0.7
0 0.7 0.8
0 0.7 0.9
0 0.7 1
0 0.7 1.1
0 0.7 1.2
0 0.7 1.3
0 0.7 1.4
0 0.7 1.5
0 0.7 1.6
0 0.7 1.7
0 0.7 1.8
0 0.7 1.9
0 0.7 2
0 0.8 0
0 0.8 0.1
0 0.8 0.2
0 0.8 0.3
0 0.8 0.4
0 0.8 0.5
0 0.8 0.6
0 0.8 0.7
0 0.8 0.8
0 0.8 0.9
0 0.8 1
0 0.8 1.1
0 0.8 1.2
0 0.8 1.3
0 0.8 1.4
0 0.8 1.5
0 0.8 1.6
0 0.8 1.7
0 0.8 1.8
0 0.8 1.9
0 0.8 2
0 0.9 0
0 0.9 0.1
0 0.9 0.2
0 0.9 0.3
0 0.9 0.4
0 0.9 0.5
0 0.9 0.6
0 0.9 0.7
0 0.9 0.8
0 0.9 0.9
0 0.9 1
0 0.9 1.1
0 0.9 1.2
0 0.9 1.3
0 0.9 1.4
0 0.9 1.5
0 0.9 1.6
0 0.9 1.7
0 0.9 1.8
0 0.9 1.9
0 0.9 2
0 1 0
0 1 0.1
0 1 0.2
0 1 0.3
0 1 0.4
0 1 0.5
0 1 0.6
0 1 0.7
0 1 0.8
0 1 0.9
0 1 1
0 1 1.1
0 1 1.2
0 1 1.3
0 1 1.4
0 1 1.5
0 1 1.6
0 1 1.7
0 1 1.8
0 1 1.9
0 1 2
0 1.1 0
0 1.1 0.1
0 1.1 0.2
0 1.1 0.3
0 1.1 0.4
0 1.1 0.5
0 1.1 0.6
0 1.1 0.7
0 1.1 0.8
0 1.1 0.9
0 1.1 1
0 1.1 1.1
0 1.1 1.2
0 1.1 1.3
0 1.1 1.4
0 1.1 1.5
0 1.1 1.6
0 1.1 1.7
0 1.1 1.8
0 1.1 1.9
0 1.1 2
0 1.2 0
0 1.2 0.1
0 1.2 0.2
0 1.2 0.3
0 1.2 0.4
0 1.2 0.5
0 1.2 0.6
0 1.2 0.7
0 1.2 0.8
0 1.2 0.9
0 1.2 1
0 1.2 1.1
0 1.2 1.2
0 1.2 1.3
0 1.2 1.4
0 1.2 1.5
0 1.2 1.6
0 1.2 1.7
0 1.2 1.8
0 1.2 1.9
0 1.2 2
0 1.3 0
0 1.3 0.1
0 1.3 0.2
0 1.3 0.3
0 1.3 0.4
0 1.3 0.5
0 1.3 0.6
0 1.3 0.7
0 1.3 0.8
0 1.3 0.9
0 1.3 1
0 1.3 1.1
0 1.3 1.2
0 1.3 1.3
0 1.3 1.4
0 1.3 1.5
0 1.3 1.6
0 1.3 1.7
0 1.3 1.8
0 1.3 1.9
0 1.3 2
0 1.4 0
0 1.4 0.1
0 1.4 0.2
0 1.4 0.3
0 1.4 0.4
0 1.4 0.5
0 1.4 0.6
0 1.4 0.7
0 1.4 0.8
0 1.4 0.9
0 1.4 1
0 1.4 1.1
0 1.4 1.2
0 1.4 1.3
0 1.4 1.4
0 1.4 1.5
0 1.4 1.6
0 1.4 1.7
0 1.4 1.8
0 1.4 1.9
0 1.4 2
0 1.5 0
0 1.5 0.1
0 1.5 0.2
0 1.5 0.3
0 1.5 0.4
0 1.5 0.5
0 1.5 0.6
0 1.5 0.7
0 1.5 0.8
0 1.5 0.9
0 1.5 1
0 1.5 1.1
0 1.5 1.2
0 1.5 1.3
0 1.5 1.4
0 1.5 1.5
0 1.5 1.6
0 1.5 1.7
0 1.5 1.8
0 1.5 1.9
0 1.5 2
0 1.6 0
0 1.6 0.1
0 1.6 0.2
0 1.6 0.3
0 1.6 0.4
0 1.6 0.5
0 1.6 0.6
0 1.6 0.7
0 1.6 0.8
0 1.6 0.9
0 1.6 1
0 1.6 1.1
0 1.6 1.2
0 1.6 1.3
0 1.6 1.4
0 1.6 1.5
0 1.6 1.6
0 1.6 1.7
0 1.6 1.8
0 1.6 1.9
0 1.6 2
0 1.7 0
0 1.7 0.1
0 1.7 0.2
0 1.7 0.3
0 1.7 0.4
0 1.7 0.5
0 1.7 0.6
0 1.7 0.7
0 1.7 0.8
0 1.7 0.9
0 1.7 1
0 1.7 1.1
0 1.7 1.2
0 1.7 1.3
0 1.7 1.4
0 1.7 1.5
0 1.7 1.6
0 1.7 1.7
0 1.7 1.8
0 1.7 1.9
0 1.7 2
0 1.8 0
0 1.8 0.1
0 1.8 0.2
0 1.8 0.3
0 1.8 0.4
0 1.8 0.5
0 1.8 0.6
0 1.8 0.7
0 1.8 0.8
0 1.8 0.9
0 1.8 1
0 1.8 1.1
0 1.8 1.2
0 1.8 1.3
0 1.8 1.4
0 1.8 1.5
0 1.8 1.6
0 1.8 1.7
0 1.8 1.8
0 1.8 1.9
0 1.8 2
0 1.9 0
0 1.9 0.1
0 1.9 0.2
0 1.9 0.3
0 1.9 0.4
0 1.9 0.5
0 1.9 0.6
0 1.9 0.7
0 1.9 0.8
0 1.9 0.9
0 1.9 1
0 1.9 1.1
0 1.9 1.2
0 1.9 1.3
0 1.9 1.4
0 1.9 1.5
0 1.9 1.6
0 1.9 1.7
0 1.9 1.8
0 1.9 1.9
0 1.9 2
0 2 0
0 2 0.1
0 2 0.2
0 2 0.3
0 2 0.4
0 2 0.5
0 2 0.6
0 2 0.7
0 2 0.8
0 2 0.9
0 2 1
0 2 1.1
0 2 1.2
0 2 1.3
0 2 1.4
0 2 1.5
0 2 1.6
0 2 1.7
0 2 1.8
0 2 1.9
0 2 2
0.1 0 0
0.1 0 0.1
0.1 0 0.2
0.1 0 0.3
0.1 0 0.4
0.1 0 0.5
0.1 0 0.6
0.1 0 0.7
0.1 0 0.8
0.1 0 0.9
0.1 0 1
0.1 0 1.1
0.1 0 1.2
0.1 0 1.3
0.1 0 1.4
0.1 0 1.5
0.1 0 1.6
0.1 0 1.7
0.1 0 1.8
0.1 0 1.9
0.1 0 2
0.1 0.1 0
0.1 0.1 0.1
0.1 0.1 0.2
0.1 0.1 0.3
0.1 0.1 0.4
0.1 0.1 0.5
0.1 0.1 0.6
0.1 0.1 0.7
0.1 0.1 0.8
0.1 0.1 0.9
0.1 0.1 1
0.1 0.1 1.1
0.1 0.1 1.2
0.1 0.1 1.3
0.1 0.1 1.4
0.1 0.1 1.5
0.1 0.1 1.6
0.1 0.1 1.7
0.1 0.1 1.8
0.1 0.1 1.9
0.1 0.1 2
0.1 0.2 0
0.1 0.2 0.1
0.1 0.2 0.2
0.1 0.2 0.3
0.1 0.2 0.4
0.1 0.2 0.5
0.1 0.2 0.6
0.1 0.2 0.7
0.1 0.2 0.8
0.1 0.2 0.9
0.1 0.2 1
0.1 0.2 1.1
0.1 0.2 1.2
0.1 0.2 1.3
0.1 0.2 1.4
0.1 0.2 1.5
0.1 0.2 1.6
0.1 0.2 1.7
0.1 0.2 1.8
0.1 0.2 1.9
0.1 0.2 2
0.1 0.3 0
0.1 0.3 0.1
0.1 0.3 0.2
0.1 0.3 0.3
0.1 0.3 0.4
0.1 0.3 0.5
0.1 0.3 0.6
0.1 0.3 0.7
0.1 0.3 0.8
0.1 0.3 0.9
0.1 0.3 1
0.1 0.3 1.1
0.1 0.3 1.2
0.1 0.3 1.3
0.1 0.3 1.4
0.1 0.3 1.5
0.1 0.3 1.6
0.1 0.3 1.7
0.1 0.3 1.8
0.1 0.3 1.9
0.1 0.3 2
0.1 0.4 0
0.1 0.4 0.1
0.1 0.4 0.2
0.1 0.4 0.3
0.1 0.4 0.4
0.1 0.4 0.5
0.1 0.4 0.6
0.1 0.4 0.7
0.1 0.4 0.8
0.1 0.4 0.9
0.1 0.4 1
0.1 0.4 1.1
0.1 0.4 1.2
0.1 0.4 1.3
0.1 0.4 1.4
0.1 0.4 1.5
0.1 0.4 1.6
0.1 0.4 1.7
0.1 0.4 1.8
0.1 0.4 1.9
0.1 0.4 2
0.1 0.5 0
0.1 0.5 0.1
0.1 0.5 0.2
0.1 0.5 0.3
0.1 0.5 0.4
0.1 0.5 0.5
0.1 0.5 0.6
0.1 0.5 0.7
0.1 0.5 0.8
0.1 0.5 0.9
0.1 0.5 1
0.1 0.5 1.1
0.1 0.5 1.2
0.1 0.5 1.3
0.1 0.5 1.4
0.1 0.5 1.5
0.1 0.5 1.6
0.1 0.5 1.7
0.1 0.5 1.8
0.1 0.5 1.9
0.1 0.5 2
0.1 0.6 0
0.1 0.6 0.1
0.1 0.6 0.2
0.1 0.6 0.3
0.1 0.6 0.4
0.1 0.6 0.5
0.1 0.6 0.6
0.1 0.6 0.7
0.1 0.6 0.8
0.1 0.6 0.9
0.1 0.6 1
0.1 0.6 1.1
0.1 0.6 1.2
0.1 0.6 1.3
0.1 0.6 1.4
0.1 0.6 1.5
0.1 0.6 1.6
0.1 0.6 1.7
0.1 0.6 1.8
0.1 0.6 1.9
0.1 0.6 2
0.1 0.7 0
0.1 0.7 0.1
0.1 0.7 0.2
0.1 0.7 0.3
0.1 0.7 0.4
0.1 0.7 0.5
0.1 0.7 0.6
0.1 0.7 0.7
0.1 0.7 0.8
0.1 0.7 0.9
0.1 0.7 1
0.1 0.7 1.1
0.1 0.7 1.2
0.1 0.7 1.3
0.1 0.7 1.4
0.1 0.7 1.5
0.1 0.7 1.6
0.1 0.7 1.7
0.1 0.7 1.8
0.1 0.7 1.9
0.1 0.7 2
0.1 0.8 0
0.1 0.8 0.1
0.1 0.8 0.2
0.1 0.8 0.3
0.1 0.8 0.4
0.1 0.8 0.5
0.1 0.8 0.6
0.1 0.8 0.7
0.1 0.8 0.8
0.1 0.8 0.9
0.1 0.8 1
0.1 0.8 1.1
0.1 0.8 1.2
0.1 0.8 1.3
0.1 0.8 1.4
0.1 0.8 1.5
0.1 0.8 1.6
0.1 0.8 1.7
0.1 0.8 1.8
0.1 0.8 1.9
0.1 0.8 2
0.1 0.9 0
0.1 0.9 0.1
0.1 0.9 0.2
0.1 0.9 0.3
0.1 0.9 0.4
0.1 0.9 0.5
0.1 0.9 0.6
0.1 0.9 0.7
0.1 0.9 0.8
0.1 0.9 0.9
0.1 0.9 1
0.1 0.9 1.1
0.1 0.9 1.2
0.1 0.9 1.3
0.1 0.9 1.4
0.1 0.9 1.5
0.1 0.9 1.6
0.1 0.9 1.7
0.1 0.9 1.8
0.1 0.9 1.9
0.1 0.9 2
0.1 1 0
0.1 1 0.1
0.1 1 0.2
0.1 1 0.3
0.1 1 0.4
0.1 1 0.5
0.1 1 0.6
0.1 1 0.7
0.1 1 0.8
0.1 1 0.9
0.1 1 1
0.1 1 1.1
0.1 1 1.2
0.1 1 1.3
0.1 1 1.4
0.1 1 1.5
0.1 1 1.6
0.1 1 1.7
0.1 1 1.8
0.1 1 1.9
0.1 1 2
0.1 1.1 0
0.1 1.1 0.1
0.1 1.1 0.2
0.1 1.1 0.3
0.1 1.1 0.4
0.1 1.1 0.5
0.1 1.1 0.6
0.1 1.1 0.7
0.1 1.1 0.8
0.1 1.1 0.9
0.1 1.1 1
0.1 1.1 1.1
0.1 1.1 1.2
0.1 1.1 1.3
0.1 1.1 1.4
0.1 1.1 1.5
0.1 1.1 1.6
0.1 1.1 1.7
0.1 1.1 1.8
0.1 1.1 1.9
0.1 1.1 2
0.1 1.2 0
0.1 1.2 0.1
0.1 1.2 0.2
0.1 1.2 0.3
0.1 1.2 0.4
0.1 1.2 0.5
0.1 1.2 0.6
0.1 1.2 0.7
0.1 1.2 0.8
0.1 1.2 0.9
0.1 1.2 1
0.1 1.2 1.1
0.1 1.2 1.2
0.1 1.2 1.3
0.1 1.2 1.4
0.1 1.2 1.5
0.1 1.2 1.6
0.1 1.2 1.7
0.1 1.2 1.8
0.1 1.2 1.9
0.1 1.2 2
0.1 1.3 0
0.1 1.3 0.1
0.1 1.3 0.2
0.1 1.3 0.3
0.1 1.3 0.4
0.1 1.3 0.5
0.1 1.3 0.6
0.1 1.3 0.7
0.1 1.3 0.8
0.1 1.3 0.9
0.1 1.3 1
0.1 1.3 1.1
0.1 1.3 1.2
0.1 1.3 1.3
0.1 1.3 1.4
0.1 1.3 1.5
0.1 1.3 1.6
0.1 1.3 1.7
0.1 1.3 1.8
0.1 1.3 1.9
0.1 1.3 2
0.1 1.4 0
0.1 1.4 0.1
0.1 1.4 0.2
0.1 1.4 0.3
0.1 1.4 0.4
0.1 1.4 0.5
0.1 1.4 0.6
0.1 1.4 0.7
0.1 1.4 0.8
0.1 1.4 0.9
0.1 1.4 1
0.1 1.4 1.1
0.1 1.4 1.2
0.1 1.4 1.3
0.1 1.4 1.4
0.1 1.4 1.5
0.1 1.4 1.6
0.1 1.4 1.7
0.1 1.4 1.8
0.1 1.4 1.9
0.1 1.4 2
0.1 1.5 0
0.1 1.5 0.1
0.1 1.5 0.2
0.1 1.5 0.3
0.1 1.5 0.4
0.1 1.5 0.5
0.1 1.5 0.6
0.1 1.5 0.7
0.1 1.5 0.8
0.1 1.5 0.9
0.1 1.5 1
0.1 1.5 1.1
0.1 1.5 1.2
0.1 1.5 1.3
0.1 1.5 1.4
0.1 1.5 1.5
0.1 1.5 1.6
0.1 1.5 1.7
0.1 1.5 1.8
0.1 1.5 1.9
0.1 1.5 2
0.1 1.6 0
0.1 1.6 0.1
0.1 1.6 0.2
0.1 1.6 0.3
0.1 1.6 0.4
0.1 1.6 0.5
0.1 1.6 0.6
0.1 1.6 0.7
0.1 1.6 0.8
0.1 1.6 0.9
0.1 1.6 1
0.1 1.6 1.1
0.1 1.6 1.2
0.1 1.6 1.3
0.1 1.6 1.4
0.1 1.6 1.5
0.1 1.6 1.6
0.1 1.6 1.7
0.1 1.6 1.8
0.1 1.6 1.9
0.1 1.6 2
0.1 1.7 0
0.1 1.7 0.1
0.1 1.7 0.2
0.1 1.7 0.3
0.1 1.7 0.4
0.1 1.7 0.5
0.1 1.7 0.6
0.1 1.7 0.7
0.1 1.7 0.8
0.1 1.7 0.9
0.1 1.7 1
0.1 1.7 1.1
0.1 1.7 1.2
0.1 1.7 1.3
0.1 1.7 1.4
0.1 1.7 1.5
0.1 1.7 1.6
0.1 1.7 1.7
0.1 1.7 1.8
0.1 1.7 1.9
0.1 1.7 2
0.1 1.8 0
0.1 1.8 0.1
0.1 1.8 0.2
0.1 1.8 0.3
0.1 1.8 0.4
0.1 1.8 0.5
0.1 1.8 0.6
0.1 1.8 0.7
0.1 1.8 0.8
0.1 1.8 0.9
0.1 1.8 1
0.1 1.8 1.1
0.1 1.8 1.2
0.1 1.8 1.3
0.1 1.8 1.4
0.1 1.8 1.5
0.1 1.8 1.6
0.1 1.8 1.7
0.1 1.8 1.8
0.1 1.8 1.9
0.1 1.8 2
0.1 1.9 0
0.1 1.9 0.1
0.1 1.9 0.2
0.1 1.9 0.3
0.1 1.9 0.4
0.1 1.9 0.5
0.1 1.9 0.6
0.1 1.9 0.7
0.1 1.9 0.8
0.1 1.9 0.9
0.1 1.9 1
0.1 1.9 1.1
0.1 1.9 1.2
0.1 1.9 1.3
0.1 1.9 1.4
0.1 1.9 1.5
0.1 1.9 1.6
0.1 1.9 1.7
0.1 1.9 1.8
0.1 1.9 1.9
0.1 1.9 2
0.1 2 0
0.1 2 0.1
0.1 2 0.2
0.1 2 0.3
0.1 2 0.4
0.1 2 0.5
0.1 2 0.6
0.1 2 0.7
0.1 2 0.8
0.1 2 0.9
0.1 2 1
0.1 2 1.1
0.1 2 1.2
0.1 2 1.3
0.1 2 1.4
0.1 2 1.5
0.1 2 1.6
0.1 2 1.7
0.1 2 1.8
0.1 2 1.9
0.1 2 2
0.2 0 0
0.2 0 0.1
0.2 0 0.2
0.2 0 0.3
0.2 0 0.4
0.2 0 0.5
0.2 0 0.6
0.2 0 0.7
0.2 0 0.8
0.2 0 0.9
0.2 0 1
0.2 0 1.1
0.2 0 1.2
0.2 0 1.3
0.2 0 1.4
0.2 0 1.5
0.2 0 1.6
0.2 0 1.7
0.2 0 1.8
0.2 0 1.9
0.2 0 2
0.2 0.1 0
0.2 0.1 0.1
0.2 0.1 0.2
0.2 0.1 0.3
0.2 0.1 0.4
0.2 0.1 0.5
0.2 0.1 0.6
0.2 0.1 0.7
0.2 0.1 0.8
0.2 0.1 0.9
0.2 0.1 1
0.2 0.1 1.1
0.2 0.1 1.2
0.2 0.1 1.3
0.2 0.1 1.4
0.2 0.1 1.5
0.2 0.1 1.6
0.2 0.1 1.7
0.2 0.1 1.8
0.2 0.1 1.9
0.2 0.1 2
0.2 0.2 0
0.2 0.2 0.1
0.2 0.2 0.2
0.2 0.2 0.3
0.2 0.2 0.4
0.2 0.2 0.5
0.2 0.2 0.6
0.2 0.2 0.7
0.2 0.2 0.8
0.2 0.2 0.9
0.2 0.2 1
0.2 0.2 1.1
0.2 0.2 1.2
0.2 0.2 1.3
0.2 0.2 1.4
0.2 0.2 1.5
0.2 0.2 1.6
0.2 0.2 1.7
0.2 0.2 1.8
0.2 0.2 1.9
[...]
CELL_DATA 8000
SCALARS Phi_sigma_(3D) float 1
LOOKUP_TABLE default
0.180886
0.179706
0.17841
0.177465
0.176733
0.1762
0.175847
0.175619
0.175529
0.175482
0.175483
0.175538
0.175708
0.176044
0.176503
0.177056
0.177769
0.178733
0.180008
0.181163
0.181602
0.179878
0.178342
0.177465
0.176737
0.176209
0.175884
0.175651
0.17561
0.175561
0.175555
0.175578
0.175726
0.176084
0.176559
0.177076
0.177745
0.178682
0.180182
0.181861
0.185588
0.18391
0.182428
0.181619
0.180964
0.180519
0.180235
0.179999
0.179952
0.179918
0.179955
0.17998
0.180096
0.180418
0.180873
0.181387
0.182004
0.182841
0.18427
0.18598
0.193204
0.192276
0.191261
0.190556
0.190038
0.189704
0.189463
0.18926
0.189175
0.189167
0.189243
0.189309
0.189426
0.189677
0.190062
0.190552
0.191103
0.191788
0.192774
0.193796
0.201856
0.201388
0.200791
0.200291
0.199905
0.199632
0.199437
0.199298
0.199235
0.199238
0.199299
0.199389
0.199527
0.199751
0.200064
0.200453
0.2009
0.201422
0.202031
0.202541
0.210291
0.210054
0.209715
0.209391
0.209121
0.208918
0.208775
0.208683
0.208647
0.208662
0.208722
0.208819
0.20896
0.209156
0.20941
0.209714
0.210055
0.210426
0.210795
0.211057
0.21819
0.218067
0.217875
0.217675
0.217498
0.217361
0.217265
0.217211
0.217199
0.217227
0.217291
0.217388
0.217521
0.217692
0.217898
0.218135
0.21839
0.218647
0.218878
0.219023
0.225516
0.22545
0.225343
0.225225
0.225117
0.225033
0.224979
0.224956
0.224965
0.225004
0.225072
0.225168
0.22529
0.225437
0.225607
0.225792
0.225983
0.226164
0.226315
0.226403
0.232303
0.232268
0.23221
0.232145
0.232087
0.232044
0.232022
0.232024
0.232051
0.232101
0.232173
0.232266
0.232377
0.232506
0.232647
0.232794
0.23294
0.233072
0.233175
0.233233
0.238587
0.23857
0.238543
0.238513
0.238489
0.238477
0.238481
0.238503
0.238543
0.238602
0.238677
0.238768
0.238871
0.238984
0.239104
0.239224
0.239338
0.239438
0.239513
0.239554
0.244392
0.244386
0.244378
0.244371
0.244371
0.244382
0.244405
0.244443
0.244495
0.244561
0.244639
0.244728
0.244824
0.244927
0.245031
0.245132
0.245224
0.245303
0.24536
0.245391
0.249725
0.249726
0.24973
0.249739
0.249756
0.249783
0.249821
0.249871
0.249932
0.250004
0.250084
0.250172
0.250264
0.250358
0.250451
0.250538
0.250617
0.250681
0.250727
0.250752
0.254576
0.254582
0.254594
0.254614
0.254643
0.254682
0.254731
0.25479
0.254859
0.254935
0.255018
0.255104
0.255193
0.255281
0.255366
0.255445
0.255513
0.255569
0.255608
0.255628
0.258926
0.258935
0.258953
0.258981
0.259018
0.259066
0.259123
0.25919
0.259264
0.259344
0.259428
0.259514
0.259601
0.259685
0.259764
0.259836
0.259898
0.259948
0.259982
0.26
0.262747
0.262757
0.262779
0.262812
0.262856
0.26291
0.262974
0.263046
0.263124
0.263207
0.263293
0.263379
0.263464
0.263546
0.263621
0.263689
0.263746
0.263791
0.263822
0.263839
0.266004
0.266016
0.266041
0.266078
0.266126
0.266185
0.266253
0.266329
0.266411
0.266496
0.266583
0.26667
0.266754
0.266833
0.266906
0.26697
0.267024
0.267067
0.267096
0.267111
0.268665
0.268678
0.268705
0.268744
0.268796
0.268858
0.26893
0.269008
0.269092
0.269179
0.269267
0.269354
0.269437
0.269515
0.269586
0.269648
0.2697
0.269741
0.269769
0.269783
0.270695
0.270709
0.270737
0.270779
0.270833
0.270897
0.270971
0.271052
0.271138
0.271226
0.271314
0.271401
0.271484
0.271561
0.27163
0.271691
0.271742
0.271781
0.271808
0.271822
0.272068
0.272083
0.272112
0.272154
0.272209
0.272275
0.272351
0.272433
0.272519
0.272608
0.272697
0.272784
0.272866
0.272943
0.273012
0.273072
0.273121
0.27316
0.273186
0.2732
0.272762
0.272776
0.272806
0.272849
0.272904
0.272971
0.273047
0.27313
0.273217
0.273306
0.273395
0.273482
0.273564
0.27364
0.273709
0.273768
0.273818
0.273856
0.273882
0.273895
0.181728
0.180029
0.178507
0.177632
0.176909
0.17639
0.176066
0.17583
0.175784
0.175736
0.175737
0.175762
0.175906
0.17626
0.176735
0.177257
0.177925
0.178854
0.180338
0.182003
0.180452
0.17623
0.173925
0.173556
0.172707
0.172101
0.171869
0.171537
0.171749
0.171629
0.171591
0.171483
0.171553
0.172063
0.172651
0.173025
0.173587
0.1743
0.176477
0.180508
0.184063
0.179809
0.177438
0.177107
0.176329
0.175908
0.175734
0.175315
0.175475
0.175375
0.175497
0.175378
0.175349
0.175776
0.176354
0.176847
0.17736
0.177876
0.17999
0.184405
0.193558
0.192079
0.190714
0.190032
0.189522
0.189325
0.18913
0.188819
0.188715
0.188711
0.188933
0.188957
0.188966
0.189175
0.189587
0.190199
0.190713
0.191245
0.192425
0.194323
0.203012
0.202436
0.201776
0.201286
0.200913
0.200665
0.200485
0.20034
0.200283
0.20029
0.200367
0.200448
0.200571
0.200789
0.201101
0.201493
0.20192
0.202418
0.203075
0.203728
0.211546
0.211292
0.210948
0.210633
0.210375
0.210183
0.210048
0.209962
0.209932
0.20995
0.210012
0.210107
0.210245
0.210439
0.210688
0.210983
0.211312
0.211672
0.212046
0.212328
0.219372
0.219248
0.219061
0.218869
0.218701
0.218571
0.218482
0.218434
0.218426
0.218456
0.218521
0.218619
0.21875
0.218918
0.219121
0.21935
0.219597
0.219848
0.220074
0.22022
0.226606
0.226543
0.22644
0.226328
0.226227
0.226149
0.226099
0.22608
0.226093
0.226134
0.226204
0.2263
0.226421
0.226566
0.226733
0.226914
0.227099
0.227276
0.227422
0.227508
0.233323
0.23329
0.233236
0.233175
0.233121
0.233083
0.233065
0.233071
0.2331
0.233152
0.233225
0.233319
0.23343
0.233557
0.233696
0.233841
0.233983
0.234112
0.234213
0.234269
0.239564
0.239549
0.239524
0.239497
0.239476
0.239468
0.239475
0.2395
0.239543
0.239604
0.239681
0.239772
0.239875
0.239988
0.240106
0.240225
0.240337
0.240435
0.240508
0.240548
0.24535
0.245346
0.245339
0.245335
0.245338
0.245351
0.245378
0.245418
0.245473
0.24554
0.24562
0.245709
0.245807
0.245909
0.246012
0.246112
0.246204
0.246281
0.246338
0.246368
0.250683
0.250685
0.25069
0.250702
0.250721
0.250751
0.250792
0.250844
0.250907
0.250981
0.251063
0.251152
0.251245
0.251339
0.251431
0.251519
0.251596
0.25166
0.251706
0.25173
0.255548
0.255554
0.255568
0.25559
0.255621
0.255663
0.255714
0.255776
0.255847
0.255925
0.256009
0.256098
0.256187
0.256276
0.256361
0.256439
0.256508
0.256563
0.256601
0.256622
0.259921
0.25993
0.259949
0.259979
0.260019
0.260069
0.260129
0.260198
0.260274
0.260357
0.260443
0.260531
0.260618
0.260703
0.260783
0.260855
0.260917
0.260966
0.261
0.261018
0.263769
0.26378
0.263804
0.263839
0.263885
0.263942
0.264008
0.264082
0.264163
0.264249
0.264336
0.264424
0.26451
0.264593
0.264669
0.264736
0.264794
0.264839
0.26487
0.264886
0.267056
0.267069
0.267095
0.267134
0.267185
0.267246
0.267317
0.267396
0.26748
0.267568
0.267657
0.267745
0.26783
0.267911
0.267984
0.268049
0.268103
0.268145
0.268175
0.26819
0.269744
0.269758
0.269786
0.269828
0.269882
0.269947
0.270022
0.270103
0.27019
0.27028
0.27037
0.270458
0.270543
0.270622
0.270693
0.270756
0.270808
0.270849
0.270876
0.270891
0.271799
0.271813
0.271843
0.271886
0.271943
0.27201
0.272087
0.272171
0.27226
0.272351
0.272441
0.27253
0.272614
0.272692
0.272762
0.272823
0.272874
0.272913
0.27294
0.272954
0.273188
0.273204
0.273234
0.273279
0.273336
0.273406
0.273484
0.273569
0.273659
0.273751
0.273842
0.27393
0.274014
0.274092
0.274161
0.274221
0.274271
0.27431
0.274336
0.274349
0.273891
0.273906
0.273937
0.273982
0.27404
0.27411
0.27419
0.274275
0.274366
0.274458
0.274549
0.274638
0.274721
0.274798
0.274867
0.274927
0.274976
0.275015
0.275041
0.275054
0.185942
0.184377
0.182939
0.182122
0.181482
0.181067
0.180788
0.180538
0.180471
0.180443
0.180506
0.180538
0.180642
0.180944
0.181396
0.181936
0.182554
0.183366
0.184741
0.186393
0.184414
0.18059
0.17825
0.177791
0.177058
0.176778
0.176614
0.176127
0.176182
0.176107
0.176367
0.176263
0.176169
0.176507
0.177074
0.177721
0.178249
0.178695
0.180684
0.184994
0.188239
0.184296
0.182084
0.181779
0.181074
0.180686
0.180528
0.180152
0.180308
0.180224
0.180336
0.18023
0.180214
0.180621
0.181164
0.181615
0.182083
0.182569
0.184557
0.188644
0.197379
0.195604
0.194472
0.194062
0.193542
0.193056
0.192842
0.19275
0.192857
0.19282
0.19271
0.192731
0.192919
0.193299
0.193684
0.193906
0.19435
0.195041
0.196259
0.197712
0.206165
0.205569
0.20498
0.204571
0.204222
0.203947
0.203777
0.203684
0.203674
0.203678
0.203703
0.20378
0.203934
0.204175
0.204465
0.204772
0.205158
0.205649
0.206273
0.206834
0.21426
0.214017
0.213707
0.21343
0.213195
0.213014
0.212893
0.212827
0.212812
0.212834
0.212889
0.212983
0.213124
0.213317
0.213551
0.213817
0.214121
0.214458
0.214805
0.215059
0.221763
0.22165
0.221482
0.221311
0.221161
0.221045
0.220968
0.220931
0.220932
0.220967
0.221032
0.221129
0.22126
0.221424
0.221617
0.221831
0.222062
0.222295
0.222505
0.222638
0.228771
0.228714
0.228622
0.228524
0.228435
0.228368
0.228328
0.228318
0.228337
0.228383
0.228454
0.22855
0.22867
0.228813
0.228973
0.229144
0.22932
0.229485
0.229622
0.229702
0.23534
0.235312
0.235265
0.235213
0.235168
0.235139
0.235129
0.235141
0.235175
0.235231
0.235307
0.235401
0.235512
0.235637
0.235772
0.235912
0.236047
0.236169
0.236264
0.236317
0.241499
0.241486
0.241466
0.241446
0.241432
0.241431
0.241444
0.241475
0.241523
0.241587
0.241667
0.241759
0.241863
0.241975
0.242091
0.242206
0.242314
0.242408
0.242478
0.242516
0.247252
0.24725
0.247247
0.247248
0.247256
0.247275
0.247307
0.247353
0.247412
0.247484
0.247566
0.247657
0.247755
0.247857
0.24796
0.248058
0.248147
0.248222
0.248277
0.248305
0.25259
0.252593
0.252602
0.252617
0.252642
0.252676
0.252722
0.25278
0.252848
0.252925
0.25301
0.253101
0.253195
0.25329
0.253382
0.253469
0.253545
0.253608
0.253652
0.253676
0.257486
0.257494
0.257511
0.257536
0.257572
0.257619
0.257676
0.257742
0.257818
0.2579
0.257988
0.258078
0.25817
0.258259
0.258345
0.258423
0.25849
0.258545
0.258583
0.258602
0.261909
0.26192
0.261941
0.261975
0.262019
0.262075
0.26214
0.262214
0.262295
0.262382
0.262471
0.262562
0.262652
0.262738
0.262818
0.26289
0.262952
0.263
0.263034
0.263052
0.265816
0.265829
0.265855
0.265894
0.265945
0.266007
0.266079
0.266159
0.266244
0.266334
0.266426
0.266517
0.266605
0.266689
0.266766
0.266834
0.266891
0.266936
0.266967
0.266983
0.269165
0.26918
0.269209
0.269251
0.269307
0.269374
0.269451
0.269536
0.269625
0.269718
0.269811
0.269902
0.26999
0.270072
0.270146
0.270211
0.270265
0.270307
0.270336
0.270351
0.271912
0.271927
0.271958
0.272004
0.272063
0.272134
0.272215
0.272303
0.272395
0.27249
0.272584
0.272676
0.272763
0.272844
0.272916
0.272979
0.273031
0.273071
0.273099
0.273113
0.274015
0.274032
0.274064
0.274112
0.274174
0.274247
0.274331
0.274421
0.274515
0.274611
0.274706
0.274798
0.274885
0.274965
0.275036
0.275098
0.275148
0.275187
0.275214
0.275228
0.275441
0.275457
0.275491
0.27554
0.275603
0.275679
0.275764
0.275855
0.275951
0.276048
0.276144
0.276236
0.276322
0.276401
0.276472
0.276532
0.276582
0.27662
0.276646
0.27666
0.276161
0.276178
0.276212
0.276262
0.276326
0.276402
0.276488
0.27658
0.276677
0.276774
0.27687
0.276962
0.277049
0.277127
0.277197
0.277257
0.277307
0.277345
0.27737
0.277384
0.193686
0.192821
0.191875
0.191198
0.190685
0.19033
0.190084
0.189903
0.189832
0.18982
0.18987
0.189939
0.190075
0.190338
0.190714
0.191173
0.191715
0.192406
0.193345
0.194249
0.1942
0.19283
0.191636
0.191007
0.190496
0.19017
0.189952
0.189742
0.189699
0.189687
0.189763
0.189802
0.189899
0.190169
0.190566
0.191028
0.191536
0.192177
0.193321
0.194785
0.19719
0.195409
0.194147
0.193678
0.193176
0.192853
0.19267
0.192461
0.192486
0.192462
0.192527
0.19254
0.192626
0.192924
0.19332
0.19372
0.19417
0.194722
0.195919
0.19776
0.203866
0.203016
0.202258
0.201807
0.201418
0.201117
0.200937
0.200832
0.200832
0.200831
0.20085
0.200913
0.201062
0.201323
0.201636
0.201956
0.202362
0.202902
0.203686
0.204494
0.211124
0.210745
0.210314
0.209973
0.20969
0.209472
0.209331
0.209255
0.209243
0.209258
0.209303
0.209391
0.209538
0.20975
0.210007
0.210293
0.210632
0.211039
0.211504
0.211881
0.218318
0.21814
0.217898
0.217672
0.217479
0.21733
0.217232
0.217182
0.217178
0.217207
0.217268
0.217364
0.217502
0.217682
0.217896
0.218136
0.218404
0.218693
0.218974
0.219167
0.225267
0.225178
0.225043
0.224904
0.224781
0.224687
0.224628
0.224605
0.224616
0.224657
0.224727
0.224825
0.224952
0.225108
0.225287
0.225483
0.22569
0.225895
0.226074
0.226185
0.23193
0.231884
0.23181
0.231731
0.231661
0.23161
0.231584
0.231585
0.231612
0.231664
0.231739
0.231836
0.231954
0.232091
0.232242
0.232402
0.232562
0.232711
0.232832
0.232902
0.238293
0.23827
0.238234
0.238195
0.238163
0.238146
0.238147
0.238169
0.238211
0.238272
0.238351
0.238447
0.238557
0.238679
0.238808
0.23894
0.239066
0.239179
0.239265
0.239313
0.244345
0.244336
0.244323
0.244312
0.244308
0.244316
0.244339
0.244378
0.244433
0.244502
0.244585
0.24468
0.244784
0.244894
0.245007
0.245118
0.24522
0.245308
0.245373
0.245408
0.250064
0.250065
0.250067
0.250075
0.250091
0.250119
0.250159
0.250212
0.250278
0.250355
0.250441
0.250535
0.250634
0.250736
0.250837
0.250932
0.251018
0.25109
0.251142
0.251169
0.255422
0.255428
0.255441
0.255462
0.255494
0.255536
0.25559
0.255655
0.255729
0.255812
0.255902
0.255996
0.256092
0.256187
0.256279
0.256364
0.256438
0.256499
0.256542
0.256564
0.260377
0.260387
0.260408
0.260439
0.260482
0.260536
0.2606
0.260675
0.260757
0.260845
0.260938
0.261032
0.261126
0.261216
0.261302
0.261379
0.261446
0.261499
0.261536
0.261555
0.264884
0.264897
0.264923
0.264962
0.265013
0.265076
0.265149
0.265231
0.26532
0.265412
0.265507
0.265602
0.265695
0.265782
0.265863
0.265935
0.265996
0.266044
0.266077
0.266094
0.268889
0.268904
0.268934
0.268979
0.269037
0.269107
0.269188
0.269276
0.269369
0.269466
0.269563
0.269659
0.26975
0.269836
0.269913
0.269981
0.270038
0.270082
0.270113
0.270129
0.272339
0.272356
0.272389
0.272438
0.272502
0.272577
0.272663
0.272756
0.272854
0.272954
0.273053
0.273149
0.27324
0.273324
0.273399
0.273464
0.273518
0.27356
0.273588
0.273603
0.27518
0.275198
0.275234
0.275286
0.275353
0.275433
0.275523
0.27562
0.275721
0.275823
0.275924
0.276021
0.276111
0.276194
0.276268
0.276331
0.276382
0.276422
0.276449
0.276463
0.277363
0.277381
0.277419
0.277474
0.277544
0.277627
0.27772
0.27782
0.277923
0.278027
0.278129
0.278226
0.278316
0.278398
0.27847
0.278531
0.278582
0.27862
0.278646
0.278659
0.278845
0.278864
0.278903
0.278959
0.279031
0.279116
0.279211
0.279313
0.279417
0.279522
0.279625
0.279722
0.279812
0.279894
0.279965
0.280025
0.280075
0.280112
0.280137
0.28015
0.279595
0.279615
0.279654
0.279711
0.279784
0.27987
0.279966
0.280068
0.280174
0.28028
0.280382
0.28048
0.28057
0.280651
0.280721
0.280781
0.28083
0.280867
0.280892
0.280905
0.202238
0.2018
0.201238
0.200758
0.200377
0.200097
0.199901
0.199772
0.199716
0.199717
0.199767
0.199857
0.200004
0.200233
0.20054
0.200913
0.20135
0.201865
0.202446
0.202906
0.203361
0.202817
0.202201
0.201731
0.201361
0.201095
0.200911
0.200784
0.200739
0.200743
0.200797
0.20088
0.201018
0.201246
0.201552
0.201916
0.202337
0.202842
0.203473
0.204045
0.206247
0.205654
0.205049
0.204633
0.204292
0.204046
0.203883
0.203771
0.203746
0.203754
0.203807
0.203885
0.20402
0.204246
0.204538
0.204872
0.205258
0.205724
0.206344
0.206959
0.211162
0.210784
0.21035
0.210008
0.209727
0.209515
0.209376
0.209297
0.209281
0.209298
0.209348
0.209436
0.209579
0.209788
0.210045
0.210336
0.210675
0.211077
0.211543
0.211928
0.217053
0.216842
0.216565
0.216314
0.216104
0.215943
0.215837
0.215783
0.215777
0.215804
0.215864
0.215959
0.216098
0.216284
0.216506
0.216757
0.21704
0.217353
0.217668
0.217893
0.223315
0.2232
0.223033
0.222865
0.22272
0.22261
0.222539
0.222509
0.222516
0.222554
0.222622
0.222721
0.222852
0.223016
0.223207
0.223418
0.223646
0.223878
0.224089
0.224224
0.229657
0.229594
0.229497
0.229394
0.229303
0.229236
0.229198
0.229191
0.229214
0.229263
0.229337
0.229436
0.229559
0.229705
0.229868
0.230043
0.230223
0.230396
0.23054
0.230626
0.235937
0.235904
0.235852
0.235795
0.235747
0.235716
0.235707
0.235721
0.235758
0.235817
0.235896
0.235995
0.23611
0.23624
0.236381
0.236527
0.23667
0.2368
0.236903
0.236961
0.242079
0.242064
0.242041
0.242017
0.242001
0.241999
0.242013
0.242046
0.242097
0.242166
0.242249
0.242347
0.242456
0.242574
0.242697
0.242819
0.242935
0.243036
0.243112
0.243154
0.248028
0.248025
0.24802
0.24802
0.248028
0.248048
0.248083
0.248132
0.248195
0.248272
0.24836
0.248457
0.248561
0.248669
0.248778
0.248883
0.24898
0.249061
0.24912
0.249152
0.253734
0.253737
0.253746
0.253763
0.253789
0.253828
0.253878
0.253941
0.254015
0.254099
0.254191
0.254288
0.254389
0.25449
0.254589
0.254681
0.254763
0.254831
0.254879
0.254904
0.259142
0.259151
0.25917
0.259199
0.25924
0.259293
0.259357
0.259431
0.259514
0.259605
0.2597
0.259798
0.259896
0.259992
0.260083
0.260166
0.260239
0.260297
0.260338
0.260359
0.264197
0.26421
0.264236
0.264275
0.264327
0.264391
0.264466
0.26455
0.264641
0.264738
0.264836
0.264935
0.265032
0.265124
0.26521
0.265286
0.265351
0.265402
0.265438
0.265457
0.268834
0.26885
0.268882
0.268928
0.268989
0.269063
0.269147
0.26924
0.269338
0.269439
0.269541
0.269641
0.269737
0.269826
0.269908
0.269979
0.270039
0.270085
0.270118
0.270134
0.272987
0.273005
0.273041
0.273094
0.273163
0.273244
0.273336
0.273435
0.273539
0.273645
0.27375
0.273851
0.273946
0.274034
0.274112
0.274179
0.274235
0.274278
0.274308
0.274323
0.276587
0.276607
0.276646
0.276704
0.276778
0.276866
0.276964
0.277069
0.277178
0.277288
0.277395
0.277497
0.277592
0.277678
0.277754
0.277819
0.277871
0.277912
0.277939
0.277953
0.279566
0.279588
0.27963
0.279692
0.279771
0.279864
0.279967
0.280076
0.280189
0.280301
0.28041
0.280513
0.280608
0.280693
0.280767
0.28083
0.28088
0.280918
0.280944
0.280957
0.281865
0.281887
0.281932
0.281996
0.282079
0.282175
0.282282
0.282395
0.282511
0.282625
0.282736
0.282839
0.282934
0.283018
0.28309
0.283151
0.2832
0.283236
0.283261
0.283273
0.28343
0.283453
0.283499
0.283566
0.28365
0.283749
0.283859
0.283974
0.284091
0.284207
0.284319
0.284422
0.284517
0.2846
0.284672
0.284732
0.284779
0.284815
0.284838
0.28485
0.284224
0.284248
0.284294
0.284362
0.284448
0.284548
0.284658
0.284775
0.284893
0.28501
0.285121
0.285225
0.28532
0.285403
0.285474
0.285533
0.28558
0.285615
0.285638
0.28565
0.210577
0.210352
0.21003
0.209716
0.209452
0.209248
0.209105
0.209018
0.208985
0.208999
0.209055
0.209152
0.209295
0.209493
0.209743
0.210039
0.210373
0.210735
0.21109
0.211334
0.211789
0.211546
0.211217
0.210912
0.210657
0.210464
0.210329
0.210248
0.21022
0.210237
0.210295
0.21039
0.210531
0.210726
0.210971
0.211259
0.211583
0.211938
0.212299
0.212563
0.214393
0.214154
0.213844
0.213569
0.213338
0.213164
0.213045
0.212976
0.212959
0.212982
0.213041
0.213136
0.213273
0.213462
0.213696
0.213965
0.214266
0.214597
0.21494
0.215199
0.21839
0.218213
0.217971
0.217745
0.217554
0.217409
0.217312
0.217262
0.217256
0.217286
0.217348
0.217445
0.217581
0.217759
0.217972
0.218214
0.218481
0.218767
0.219047
0.219243
0.223345
0.223231
0.223063
0.222896
0.222752
0.222642
0.222572
0.222542
0.222548
0.222587
0.222655
0.222754
0.222885
0.223048
0.223239
0.22345
0.223677
0.223909
0.224119
0.224255
0.228864
0.228795
0.228688
0.228575
0.228477
0.228404
0.228362
0.228352
0.228372
0.228421
0.228495
0.228594
0.228719
0.228868
0.229035
0.229217
0.229404
0.229586
0.22974
0.229832
0.23468
0.23464
0.234577
0.234509
0.234451
0.234412
0.234396
0.234406
0.234441
0.234499
0.234578
0.234678
0.234796
0.234931
0.235079
0.235233
0.235386
0.235527
0.235641
0.235705
0.240622
0.240602
0.24057
0.240536
0.240511
0.240501
0.240509
0.240538
0.240587
0.240654
0.240738
0.240838
0.240951
0.241074
0.241204
0.241335
0.241461
0.241572
0.241658
0.241705
0.246578
0.246571
0.24656
0.246552
0.246553
0.246568
0.246597
0.246643
0.246705
0.246781
0.24687
0.24697
0.247078
0.247192
0.247307
0.24742
0.247525
0.247615
0.247681
0.247717
0.25246
0.252462
0.252467
0.252479
0.252501
0.252535
0.252583
0.252644
0.252717
0.252802
0.252895
0.252996
0.2531
0.253207
0.253312
0.253411
0.2535
0.253574
0.253627
0.253656
0.258194
0.258202
0.258219
0.258245
0.258284
0.258335
0.258398
0.258473
0.258557
0.258649
0.258747
0.258849
0.258951
0.259052
0.259148
0.259237
0.259315
0.259378
0.259422
0.259446
0.263705
0.263717
0.263743
0.263782
0.263834
0.263899
0.263976
0.264062
0.264156
0.264256
0.264358
0.264461
0.264562
0.264658
0.264748
0.264829
0.264898
0.264953
0.264992
0.265012
0.268916
0.268932
0.268965