# vtk DataFile Version 2.0
Pressure 3D1D coupled problem
ASCII
DATASET UNSTRUCTURED_GRID
POINTS 9261 float
0 0 0
0 0 0.1
0 0 0.2
0 0 0.3
0 0 0.4
0 0 0.5
0 0 0.6
0 0 0.7
0 0 0.8
0 0 0.9
0 0 1
0 0 1.1
0 0 1.2
0 0 1.3
0 0 1.4
0 0 1.5
0 0 1.6
0 0 1.7
0 0 1.8
0 0 1.9
0 0 2
0 0.1 0
0 0.1 0.1
0 0.1 0.2
0 0.1 0.3
0 0.1 0.4
0 0.1 0.5
0 0.1 0.6
0 0.1 0.7
0 0.1 0.8
0 0.1 0.9
0 0.1 1
0 0.1 1.1
0 0.1 1.2
0 0.1 1.3
0 0.1 1.4
0 0.1 1.5
0 0.1 1.6
0 0.1 1.7
0 0.1 1.8
0 0.1 1.9
0 0.1 2
0 0.2 0
0 0.2 0.1
0 0.2 0.2
0 0.2 0.3
0 0.2 0.4
0 0.2 0.5
0 0.2 0.6
0 0.2 0.7
0 0.2 0.8
0 0.2 0.9
0 0.2 1
0 0.2 1.1
0 0.2 1.2
0 0.2 1.3
0 0.2 1.4
0 0.2 1.5
0 0.2 1.6
0 0.2 1.7
0 0.2 1.8
0 0.2 1.9
0 0.2 2
0 0.3 0
0 0.3 0.1
0 0.3 0.2
0 0.3 0.3
0 0.3 0.4
0 0.3 0.5
0 0.3 0.6
0 0.3 0.7
0 0.3 0.8
0 0.3 0.9
0 0.3 1
0 0.3 1.1
0 0.3 1.2
0 0.3 1.3
0 0.3 1.4
0 0.3 1.5
0 0.3 1.6
0 0.3 1.7
0 0.3 1.8
0 0.3 1.9
0 0.3 2
0 0.4 0
0 0.4 0.1
0 0.4 0.2
0 0.4 0.3
0 0.4 0.4
0 0.4 0.5
0 0.4 0.6
0 0.4 0.7
0 0.4 0.8
0 0.4 0.9
0 0.4 1
0 0.4 1.1
0 0.4 1.2
0 0.4 1.3
0 0.4 1.4
0 0.4 1.5
0 0.4 1.6
0 0.4 1.7
0 0.4 1.8
0 0.4 1.9
0 0.4 2
0 0.5 0
0 0.5 0.1
0 0.5 0.2
0 0.5 0.3
0 0.5 0.4
0 0.5 0.5
0 0.5 0.6
0 0.5 0.7
0 0.5 0.8
0 0.5 0.9
0 0.5 1
0 0.5 1.1
0 0.5 1.2
0 0.5 1.3
0 0.5 1.4
0 0.5 1.5
0 0.5 1.6
0 0.5 1.7
0 0.5 1.8
0 0.5 1.9
0 0.5 2
0 0.6 0
0 0.6 0.1
0 0.6 0.2
0 0.6 0.3
0 0.6 0.4
0 0.6 0.5
0 0.6 0.6
0 0.6 0.7
0 0.6 0.8
0 0.6 0.9
0 0.6 1
0 0.6 1.1
0 0.6 1.2
0 0.6 1.3
0 0.6 1.4
0 0.6 1.5
0 0.6 1.6
0 0.6 1.7
0 0.6 1.8
0 0.6 1.9
0 0.6 2
0 0.7 0
0 0.7 0.1
0 0.7 0.2
0 0.7 0.3
0 0.7 0.4
0 0.7 0.5
0 0.7 0.6
0 0.7 0.7
0 0.7 0.8
0 0.7 0.9
0 0.7 1
0 0.7 1.1
0 0.7 1.2
0 0.7 1.3
0 0.7 1.4
0 0.7 1.5
0 0.7 1.6
0 0.7 1.7
0 0.7 1.8
0 0.7 1.9
0 0.7 2
0 0.8 0
0 0.8 0.1
0 0.8 0.2
0 0.8 0.3
0 0.8 0.4
0 0.8 0.5
0 0.8 0.6
0 0.8 0.7
0 0.8 0.8
0 0.8 0.9
0 0.8 1
0 0.8 1.1
0 0.8 1.2
0 0.8 1.3
0 0.8 1.4
0 0.8 1.5
0 0.8 1.6
0 0.8 1.7
0 0.8 1.8
0 0.8 1.9
0 0.8 2
0 0.9 0
0 0.9 0.1
0 0.9 0.2
0 0.9 0.3
0 0.9 0.4
0 0.9 0.5
0 0.9 0.6
0 0.9 0.7
0 0.9 0.8
0 0.9 0.9
0 0.9 1
0 0.9 1.1
0 0.9 1.2
0 0.9 1.3
0 0.9 1.4
0 0.9 1.5
0 0.9 1.6
0 0.9 1.7
0 0.9 1.8
0 0.9 1.9
0 0.9 2
0 1 0
0 1 0.1
0 1 0.2
0 1 0.3
0 1 0.4
0 1 0.5
0 1 0.6
0 1 0.7
0 1 0.8
0 1 0.9
0 1 1
0 1 1.1
0 1 1.2
0 1 1.3
0 1 1.4
0 1 1.5
0 1 1.6
0 1 1.7
0 1 1.8
0 1 1.9
0 1 2
0 1.1 0
0 1.1 0.1
0 1.1 0.2
0 1.1 0.3
0 1.1 0.4
0 1.1 0.5
0 1.1 0.6
0 1.1 0.7
0 1.1 0.8
0 1.1 0.9
0 1.1 1
0 1.1 1.1
0 1.1 1.2
0 1.1 1.3
0 1.1 1.4
0 1.1 1.5
0 1.1 1.6
0 1.1 1.7
0 1.1 1.8
0 1.1 1.9
0 1.1 2
0 1.2 0
0 1.2 0.1
0 1.2 0.2
0 1.2 0.3
0 1.2 0.4
0 1.2 0.5
0 1.2 0.6
0 1.2 0.7
0 1.2 0.8
0 1.2 0.9
0 1.2 1
0 1.2 1.1
0 1.2 1.2
0 1.2 1.3
0 1.2 1.4
0 1.2 1.5
0 1.2 1.6
0 1.2 1.7
0 1.2 1.8
0 1.2 1.9
0 1.2 2
0 1.3 0
0 1.3 0.1
0 1.3 0.2
0 1.3 0.3
0 1.3 0.4
0 1.3 0.5
0 1.3 0.6
0 1.3 0.7
0 1.3 0.8
0 1.3 0.9
0 1.3 1
0 1.3 1.1
0 1.3 1.2
0 1.3 1.3
0 1.3 1.4
0 1.3 1.5
0 1.3 1.6
0 1.3 1.7
0 1.3 1.8
0 1.3 1.9
0 1.3 2
0 1.4 0
0 1.4 0.1
0 1.4 0.2
0 1.4 0.3
0 1.4 0.4
0 1.4 0.5
0 1.4 0.6
0 1.4 0.7
0 1.4 0.8
0 1.4 0.9
0 1.4 1
0 1.4 1.1
0 1.4 1.2
0 1.4 1.3
0 1.4 1.4
0 1.4 1.5
0 1.4 1.6
0 1.4 1.7
0 1.4 1.8
0 1.4 1.9
0 1.4 2
0 1.5 0
0 1.5 0.1
0 1.5 0.2
0 1.5 0.3
0 1.5 0.4
0 1.5 0.5
0 1.5 0.6
0 1.5 0.7
0 1.5 0.8
0 1.5 0.9
0 1.5 1
0 1.5 1.1
0 1.5 1.2
0 1.5 1.3
0 1.5 1.4
0 1.5 1.5
0 1.5 1.6
0 1.5 1.7
0 1.5 1.8
0 1.5 1.9
0 1.5 2
0 1.6 0
0 1.6 0.1
0 1.6 0.2
0 1.6 0.3
0 1.6 0.4
0 1.6 0.5
0 1.6 0.6
0 1.6 0.7
0 1.6 0.8
0 1.6 0.9
0 1.6 1
0 1.6 1.1
0 1.6 1.2
0 1.6 1.3
0 1.6 1.4
0 1.6 1.5
0 1.6 1.6
0 1.6 1.7
0 1.6 1.8
0 1.6 1.9
0 1.6 2
0 1.7 0
0 1.7 0.1
0 1.7 0.2
0 1.7 0.3
0 1.7 0.4
0 1.7 0.5
0 1.7 0.6
0 1.7 0.7
0 1.7 0.8
0 1.7 0.9
0 1.7 1
0 1.7 1.1
0 1.7 1.2
0 1.7 1.3
0 1.7 1.4
0 1.7 1.5
0 1.7 1.6
0 1.7 1.7
0 1.7 1.8
0 1.7 1.9
0 1.7 2
0 1.8 0
0 1.8 0.1
0 1.8 0.2
0 1.8 0.3
0 1.8 0.4
0 1.8 0.5
0 1.8 0.6
0 1.8 0.7
0 1.8 0.8
0 1.8 0.9
0 1.8 1
0 1.8 1.1
0 1.8 1.2
0 1.8 1.3
0 1.8 1.4
0 1.8 1.5
0 1.8 1.6
0 1.8 1.7
0 1.8 1.8
0 1.8 1.9
0 1.8 2
0 1.9 0
0 1.9 0.1
0 1.9 0.2
0 1.9 0.3
0 1.9 0.4
0 1.9 0.5
0 1.9 0.6
0 1.9 0.7
0 1.9 0.8
0 1.9 0.9
0 1.9 1
0 1.9 1.1
0 1.9 1.2
0 1.9 1.3
0 1.9 1.4
0 1.9 1.5
0 1.9 1.6
0 1.9 1.7
0 1.9 1.8
0 1.9 1.9
0 1.9 2
0 2 0
0 2 0.1
0 2 0.2
0 2 0.3
0 2 0.4
0 2 0.5
0 2 0.6
0 2 0.7
0 2 0.8
0 2 0.9
0 2 1
0 2 1.1
0 2 1.2
0 2 1.3
0 2 1.4
0 2 1.5
0 2 1.6
0 2 1.7
0 2 1.8
0 2 1.9
0 2 2
0.1 0 0
0.1 0 0.1
0.1 0 0.2
0.1 0 0.3
0.1 0 0.4
0.1 0 0.5
0.1 0 0.6
0.1 0 0.7
0.1 0 0.8
0.1 0 0.9
0.1 0 1
0.1 0 1.1
0.1 0 1.2
0.1 0 1.3
0.1 0 1.4
0.1 0 1.5
0.1 0 1.6
0.1 0 1.7
0.1 0 1.8
0.1 0 1.9
0.1 0 2
0.1 0.1 0
0.1 0.1 0.1
0.1 0.1 0.2
0.1 0.1 0.3
0.1 0.1 0.4
0.1 0.1 0.5
0.1 0.1 0.6
0.1 0.1 0.7
0.1 0.1 0.8
0.1 0.1 0.9
0.1 0.1 1
0.1 0.1 1.1
0.1 0.1 1.2
0.1 0.1 1.3
0.1 0.1 1.4
0.1 0.1 1.5
0.1 0.1 1.6
0.1 0.1 1.7
0.1 0.1 1.8
0.1 0.1 1.9
0.1 0.1 2
0.1 0.2 0
0.1 0.2 0.1
0.1 0.2 0.2
0.1 0.2 0.3
0.1 0.2 0.4
0.1 0.2 0.5
0.1 0.2 0.6
0.1 0.2 0.7
0.1 0.2 0.8
0.1 0.2 0.9
0.1 0.2 1
0.1 0.2 1.1
0.1 0.2 1.2
0.1 0.2 1.3
0.1 0.2 1.4
0.1 0.2 1.5
0.1 0.2 1.6
0.1 0.2 1.7
0.1 0.2 1.8
0.1 0.2 1.9
0.1 0.2 2
0.1 0.3 0
0.1 0.3 0.1
0.1 0.3 0.2
0.1 0.3 0.3
0.1 0.3 0.4
0.1 0.3 0.5
0.1 0.3 0.6
0.1 0.3 0.7
0.1 0.3 0.8
0.1 0.3 0.9
0.1 0.3 1
0.1 0.3 1.1
0.1 0.3 1.2
0.1 0.3 1.3
0.1 0.3 1.4
0.1 0.3 1.5
0.1 0.3 1.6
0.1 0.3 1.7
0.1 0.3 1.8
0.1 0.3 1.9
0.1 0.3 2
0.1 0.4 0
0.1 0.4 0.1
0.1 0.4 0.2
0.1 0.4 0.3
0.1 0.4 0.4
0.1 0.4 0.5
0.1 0.4 0.6
0.1 0.4 0.7
0.1 0.4 0.8
0.1 0.4 0.9
0.1 0.4 1
0.1 0.4 1.1
0.1 0.4 1.2
0.1 0.4 1.3
0.1 0.4 1.4
0.1 0.4 1.5
0.1 0.4 1.6
0.1 0.4 1.7
0.1 0.4 1.8
0.1 0.4 1.9
0.1 0.4 2
0.1 0.5 0
0.1 0.5 0.1
0.1 0.5 0.2
0.1 0.5 0.3
0.1 0.5 0.4
0.1 0.5 0.5
0.1 0.5 0.6
0.1 0.5 0.7
0.1 0.5 0.8
0.1 0.5 0.9
0.1 0.5 1
0.1 0.5 1.1
0.1 0.5 1.2
0.1 0.5 1.3
0.1 0.5 1.4
0.1 0.5 1.5
0.1 0.5 1.6
0.1 0.5 1.7
0.1 0.5 1.8
0.1 0.5 1.9
0.1 0.5 2
0.1 0.6 0
0.1 0.6 0.1
0.1 0.6 0.2
0.1 0.6 0.3
0.1 0.6 0.4
0.1 0.6 0.5
0.1 0.6 0.6
0.1 0.6 0.7
0.1 0.6 0.8
0.1 0.6 0.9
0.1 0.6 1
0.1 0.6 1.1
0.1 0.6 1.2
0.1 0.6 1.3
0.1 0.6 1.4
0.1 0.6 1.5
0.1 0.6 1.6
0.1 0.6 1.7
0.1 0.6 1.8
0.1 0.6 1.9
0.1 0.6 2
0.1 0.7 0
0.1 0.7 0.1
0.1 0.7 0.2
0.1 0.7 0.3
0.1 0.7 0.4
0.1 0.7 0.5
0.1 0.7 0.6
0.1 0.7 0.7
0.1 0.7 0.8
0.1 0.7 0.9
0.1 0.7 1
0.1 0.7 1.1
0.1 0.7 1.2
0.1 0.7 1.3
0.1 0.7 1.4
0.1 0.7 1.5
0.1 0.7 1.6
0.1 0.7 1.7
0.1 0.7 1.8
0.1 0.7 1.9
0.1 0.7 2
0.1 0.8 0
0.1 0.8 0.1
0.1 0.8 0.2
0.1 0.8 0.3
0.1 0.8 0.4
0.1 0.8 0.5
0.1 0.8 0.6
0.1 0.8 0.7
0.1 0.8 0.8
0.1 0.8 0.9
0.1 0.8 1
0.1 0.8 1.1
0.1 0.8 1.2
0.1 0.8 1.3
0.1 0.8 1.4
0.1 0.8 1.5
0.1 0.8 1.6
0.1 0.8 1.7
0.1 0.8 1.8
0.1 0.8 1.9
0.1 0.8 2
0.1 0.9 0
0.1 0.9 0.1
0.1 0.9 0.2
0.1 0.9 0.3
0.1 0.9 0.4
0.1 0.9 0.5
0.1 0.9 0.6
0.1 0.9 0.7
0.1 0.9 0.8
0.1 0.9 0.9
0.1 0.9 1
0.1 0.9 1.1
0.1 0.9 1.2
0.1 0.9 1.3
0.1 0.9 1.4
0.1 0.9 1.5
0.1 0.9 1.6
0.1 0.9 1.7
0.1 0.9 1.8
0.1 0.9 1.9
0.1 0.9 2
0.1 1 0
0.1 1 0.1
0.1 1 0.2
0.1 1 0.3
0.1 1 0.4
0.1 1 0.5
0.1 1 0.6
0.1 1 0.7
0.1 1 0.8
0.1 1 0.9
0.1 1 1
0.1 1 1.1
0.1 1 1.2
0.1 1 1.3
0.1 1 1.4
0.1 1 1.5
0.1 1 1.6
0.1 1 1.7
0.1 1 1.8
0.1 1 1.9
0.1 1 2
0.1 1.1 0
0.1 1.1 0.1
0.1 1.1 0.2
0.1 1.1 0.3
0.1 1.1 0.4
0.1 1.1 0.5
0.1 1.1 0.6
0.1 1.1 0.7
0.1 1.1 0.8
0.1 1.1 0.9
0.1 1.1 1
0.1 1.1 1.1
0.1 1.1 1.2
0.1 1.1 1.3
0.1 1.1 1.4
0.1 1.1 1.5
0.1 1.1 1.6
0.1 1.1 1.7
0.1 1.1 1.8
0.1 1.1 1.9
0.1 1.1 2
0.1 1.2 0
0.1 1.2 0.1
0.1 1.2 0.2
0.1 1.2 0.3
0.1 1.2 0.4
0.1 1.2 0.5
0.1 1.2 0.6
0.1 1.2 0.7
0.1 1.2 0.8
0.1 1.2 0.9
0.1 1.2 1
0.1 1.2 1.1
0.1 1.2 1.2
0.1 1.2 1.3
0.1 1.2 1.4
0.1 1.2 1.5
0.1 1.2 1.6
0.1 1.2 1.7
0.1 1.2 1.8
0.1 1.2 1.9
0.1 1.2 2
0.1 1.3 0
0.1 1.3 0.1
0.1 1.3 0.2
0.1 1.3 0.3
0.1 1.3 0.4
0.1 1.3 0.5
0.1 1.3 0.6
0.1 1.3 0.7
0.1 1.3 0.8
0.1 1.3 0.9
0.1 1.3 1
0.1 1.3 1.1
0.1 1.3 1.2
0.1 1.3 1.3
0.1 1.3 1.4
0.1 1.3 1.5
0.1 1.3 1.6
0.1 1.3 1.7
0.1 1.3 1.8
0.1 1.3 1.9
0.1 1.3 2
0.1 1.4 0
0.1 1.4 0.1
0.1 1.4 0.2
0.1 1.4 0.3
0.1 1.4 0.4
0.1 1.4 0.5
0.1 1.4 0.6
0.1 1.4 0.7
0.1 1.4 0.8
0.1 1.4 0.9
0.1 1.4 1
0.1 1.4 1.1
0.1 1.4 1.2
0.1 1.4 1.3
0.1 1.4 1.4
0.1 1.4 1.5
0.1 1.4 1.6
0.1 1.4 1.7
0.1 1.4 1.8
0.1 1.4 1.9
0.1 1.4 2
0.1 1.5 0
0.1 1.5 0.1
0.1 1.5 0.2
0.1 1.5 0.3
0.1 1.5 0.4
0.1 1.5 0.5
0.1 1.5 0.6
0.1 1.5 0.7
0.1 1.5 0.8
0.1 1.5 0.9
0.1 1.5 1
0.1 1.5 1.1
0.1 1.5 1.2
0.1 1.5 1.3
0.1 1.5 1.4
0.1 1.5 1.5
0.1 1.5 1.6
0.1 1.5 1.7
0.1 1.5 1.8
0.1 1.5 1.9
0.1 1.5 2
0.1 1.6 0
0.1 1.6 0.1
0.1 1.6 0.2
0.1 1.6 0.3
0.1 1.6 0.4
0.1 1.6 0.5
0.1 1.6 0.6
0.1 1.6 0.7
0.1 1.6 0.8
0.1 1.6 0.9
0.1 1.6 1
0.1 1.6 1.1
0.1 1.6 1.2
0.1 1.6 1.3
0.1 1.6 1.4
0.1 1.6 1.5
0.1 1.6 1.6
0.1 1.6 1.7
0.1 1.6 1.8
0.1 1.6 1.9
0.1 1.6 2
0.1 1.7 0
0.1 1.7 0.1
0.1 1.7 0.2
0.1 1.7 0.3
0.1 1.7 0.4
0.1 1.7 0.5
0.1 1.7 0.6
0.1 1.7 0.7
0.1 1.7 0.8
0.1 1.7 0.9
0.1 1.7 1
0.1 1.7 1.1
0.1 1.7 1.2
0.1 1.7 1.3
0.1 1.7 1.4
0.1 1.7 1.5
0.1 1.7 1.6
0.1 1.7 1.7
0.1 1.7 1.8
0.1 1.7 1.9
0.1 1.7 2
0.1 1.8 0
0.1 1.8 0.1
0.1 1.8 0.2
0.1 1.8 0.3
0.1 1.8 0.4
0.1 1.8 0.5
0.1 1.8 0.6
0.1 1.8 0.7
0.1 1.8 0.8
0.1 1.8 0.9
0.1 1.8 1
0.1 1.8 1.1
0.1 1.8 1.2
0.1 1.8 1.3
0.1 1.8 1.4
0.1 1.8 1.5
0.1 1.8 1.6
0.1 1.8 1.7
0.1 1.8 1.8
0.1 1.8 1.9
0.1 1.8 2
0.1 1.9 0
0.1 1.9 0.1
0.1 1.9 0.2
0.1 1.9 0.3
0.1 1.9 0.4
0.1 1.9 0.5
0.1 1.9 0.6
0.1 1.9 0.7
0.1 1.9 0.8
0.1 1.9 0.9
0.1 1.9 1
0.1 1.9 1.1
0.1 1.9 1.2
0.1 1.9 1.3
0.1 1.9 1.4
0.1 1.9 1.5
0.1 1.9 1.6
0.1 1.9 1.7
0.1 1.9 1.8
0.1 1.9 1.9
0.1 1.9 2
0.1 2 0
0.1 2 0.1
0.1 2 0.2
0.1 2 0.3
0.1 2 0.4
0.1 2 0.5
0.1 2 0.6
0.1 2 0.7
0.1 2 0.8
0.1 2 0.9
0.1 2 1
0.1 2 1.1
0.1 2 1.2
0.1 2 1.3
0.1 2 1.4
0.1 2 1.5
0.1 2 1.6
0.1 2 1.7
0.1 2 1.8
0.1 2 1.9
0.1 2 2
0.2 0 0
0.2 0 0.1
0.2 0 0.2
0.2 0 0.3
0.2 0 0.4
0.2 0 0.5
0.2 0 0.6
0.2 0 0.7
0.2 0 0.8
0.2 0 0.9
0.2 0 1
0.2 0 1.1
0.2 0 1.2
0.2 0 1.3
0.2 0 1.4
0.2 0 1.5
0.2 0 1.6
0.2 0 1.7
0.2 0 1.8
0.2 0 1.9
0.2 0 2
0.2 0.1 0
0.2 0.1 0.1
0.2 0.1 0.2
0.2 0.1 0.3
0.2 0.1 0.4
0.2 0.1 0.5
0.2 0.1 0.6
0.2 0.1 0.7
0.2 0.1 0.8
0.2 0.1 0.9
0.2 0.1 1
0.2 0.1 1.1
0.2 0.1 1.2
0.2 0.1 1.3
0.2 0.1 1.4
0.2 0.1 1.5
0.2 0.1 1.6
0.2 0.1 1.7
0.2 0.1 1.8
0.2 0.1 1.9
0.2 0.1 2
0.2 0.2 0
0.2 0.2 0.1
0.2 0.2 0.2
0.2 0.2 0.3
0.2 0.2 0.4
0.2 0.2 0.5
0.2 0.2 0.6
0.2 0.2 0.7
0.2 0.2 0.8
0.2 0.2 0.9
0.2 0.2 1
0.2 0.2 1.1
0.2 0.2 1.2
0.2 0.2 1.3
0.2 0.2 1.4
0.2 0.2 1.5
0.2 0.2 1.6
0.2 0.2 1.7
0.2 0.2 1.8
0.2 0.2 1.9
[...]
CELL_DATA 8000
SCALARS Phi_sigma_(3D) float 1
LOOKUP_TABLE default
0.1363
0.135321
0.134246
0.133462
0.132855
0.132412
0.132117
0.131926
0.131847
0.131805
0.1318
0.13184
0.131976
0.132247
0.132622
0.133074
0.13366
0.134454
0.135508
0.136465
0.136957
0.135526
0.134251
0.133524
0.132919
0.13248
0.132208
0.132013
0.131975
0.13193
0.13192
0.131934
0.13205
0.132341
0.132729
0.133151
0.1337
0.134472
0.135713
0.137105
0.140389
0.138996
0.137766
0.137094
0.136549
0.13618
0.135942
0.135743
0.135701
0.135669
0.135694
0.135709
0.1358
0.136061
0.136432
0.136852
0.137358
0.138048
0.13923
0.140649
0.146895
0.146125
0.145282
0.144697
0.144267
0.143989
0.143787
0.143616
0.143543
0.143532
0.143591
0.14364
0.143731
0.143934
0.144246
0.144647
0.145099
0.145662
0.146477
0.147324
0.154319
0.153931
0.153436
0.153021
0.1527
0.152473
0.15231
0.152192
0.152137
0.152136
0.152183
0.152252
0.152361
0.152541
0.152795
0.153112
0.153477
0.153905
0.154407
0.154829
0.161617
0.161421
0.16114
0.160871
0.160647
0.160478
0.160358
0.160281
0.160248
0.160257
0.160303
0.160379
0.16049
0.160648
0.160853
0.161099
0.161377
0.16168
0.161984
0.162199
0.168522
0.16842
0.168261
0.168095
0.167949
0.167835
0.167755
0.167709
0.167696
0.167716
0.167766
0.167842
0.167947
0.168084
0.16825
0.168441
0.168647
0.168857
0.169045
0.169164
0.174997
0.174943
0.174854
0.174757
0.174668
0.174598
0.174552
0.174532
0.174538
0.174568
0.174621
0.174696
0.174793
0.17491
0.175046
0.175195
0.175348
0.175495
0.175617
0.175689
0.181064
0.181036
0.180988
0.180935
0.180887
0.180852
0.180833
0.180834
0.180855
0.180894
0.180951
0.181024
0.181112
0.181214
0.181326
0.181444
0.181561
0.181667
0.18175
0.181797
0.186744
0.18673
0.186708
0.186684
0.186665
0.186656
0.186659
0.186677
0.186709
0.186756
0.186816
0.186887
0.186969
0.187059
0.187154
0.187249
0.18734
0.187419
0.187479
0.187511
0.192046
0.192041
0.192035
0.192031
0.192032
0.192041
0.192061
0.192092
0.192135
0.192188
0.19225
0.19232
0.192397
0.192478
0.19256
0.192639
0.192713
0.192774
0.19282
0.192844
0.196962
0.196964
0.196968
0.196977
0.196992
0.197016
0.197048
0.19709
0.19714
0.197198
0.197263
0.197332
0.197405
0.197479
0.197552
0.197621
0.197682
0.197733
0.197769
0.197788
0.201473
0.201479
0.20149
0.201508
0.201533
0.201567
0.201609
0.201659
0.201715
0.201778
0.201844
0.201914
0.201984
0.202053
0.20212
0.202181
0.202234
0.202277
0.202307
0.202323
0.205548
0.205556
0.205572
0.205596
0.205629
0.205671
0.20572
0.205776
0.205837
0.205903
0.205972
0.206041
0.20611
0.206176
0.206237
0.206293
0.206341
0.206378
0.206405
0.206418
0.209148
0.209158
0.209178
0.209207
0.209245
0.209293
0.209347
0.209408
0.209474
0.209542
0.209612
0.209681
0.209749
0.209812
0.209871
0.209923
0.209967
0.210001
0.210025
0.210037
0.212234
0.212245
0.212267
0.2123
0.212343
0.212394
0.212453
0.212517
0.212586
0.212656
0.212727
0.212797
0.212864
0.212926
0.212982
0.213031
0.213073
0.213105
0.213127
0.213138
0.214765
0.214777
0.2148
0.214836
0.214881
0.214936
0.214997
0.215065
0.215136
0.215208
0.21528
0.21535
0.215416
0.215477
0.215531
0.215579
0.215618
0.215649
0.215669
0.21568
0.216702
0.216715
0.21674
0.216777
0.216824
0.216881
0.216945
0.217014
0.217086
0.21716
0.217232
0.217302
0.217368
0.217428
0.217482
0.217528
0.217566
0.217595
0.217615
0.217626
0.218014
0.218027
0.218053
0.218091
0.21814
0.218198
0.218263
0.218334
0.218407
0.218481
0.218554
0.218624
0.21869
0.218749
0.218802
0.218848
0.218885
0.218914
0.218933
0.218943
0.218678
0.218691
0.218717
0.218755
0.218805
0.218864
0.21893
0.219001
0.219074
0.219149
0.219222
0.219292
0.219357
0.219417
0.21947
0.219515
0.219551
0.21958
0.219599
0.219609
0.137061
0.135652
0.134389
0.133663
0.133062
0.13263
0.132359
0.132161
0.132119
0.132076
0.132071
0.132086
0.1322
0.132487
0.132874
0.133301
0.13385
0.134615
0.135843
0.137223
0.136065
0.13256
0.130645
0.130339
0.129633
0.129129
0.128933
0.128655
0.128827
0.128723
0.128686
0.128592
0.128644
0.12906
0.129541
0.129845
0.130306
0.130892
0.132697
0.136044
0.139187
0.135653
0.133683
0.133408
0.132761
0.132409
0.132263
0.131912
0.132041
0.131954
0.13205
0.131946
0.131915
0.132264
0.132738
0.13314
0.13356
0.133982
0.135735
0.139404
0.147262
0.146032
0.144898
0.144332
0.143908
0.143744
0.143581
0.14332
0.14323
0.143223
0.143403
0.143417
0.143419
0.143586
0.143921
0.144424
0.144844
0.145281
0.146257
0.147834
0.15536
0.154882
0.154334
0.153928
0.153618
0.153412
0.153261
0.153139
0.153088
0.15309
0.15315
0.153213
0.153309
0.153484
0.153737
0.154056
0.154405
0.154814
0.155356
0.155896
0.16275
0.16254
0.162254
0.161994
0.16178
0.16162
0.161507
0.161434
0.161406
0.161418
0.161465
0.161539
0.161649
0.161804
0.162005
0.162244
0.162512
0.162807
0.163114
0.163346
0.169605
0.169503
0.169348
0.169189
0.16905
0.168942
0.168868
0.168826
0.168818
0.16884
0.16889
0.168966
0.169071
0.169205
0.169367
0.169553
0.169753
0.169956
0.170141
0.170261
0.176017
0.175965
0.17588
0.175787
0.175704
0.175639
0.175598
0.175581
0.175589
0.175621
0.175676
0.175751
0.175847
0.175963
0.176096
0.176241
0.176391
0.176533
0.176652
0.176722
0.182039
0.182013
0.181968
0.181919
0.181875
0.181843
0.181828
0.181832
0.181855
0.181896
0.181954
0.182028
0.182116
0.182217
0.182327
0.182443
0.182556
0.18266
0.18274
0.182786
0.187699
0.187686
0.187666
0.187645
0.187629
0.187623
0.187629
0.187649
0.187684
0.187732
0.187793
0.187865
0.187947
0.188037
0.18813
0.188224
0.188313
0.188391
0.188449
0.188481
0.193
0.192997
0.192992
0.19299
0.192994
0.193006
0.193028
0.193062
0.193106
0.193161
0.193225
0.193296
0.193373
0.193453
0.193535
0.193613
0.193686
0.193746
0.193791
0.193814
0.197933
0.197935
0.197941
0.197952
0.197969
0.197995
0.19803
0.198074
0.198126
0.198186
0.198252
0.198323
0.198396
0.19847
0.198543
0.198611
0.198672
0.198721
0.198757
0.198776
0.202471
0.202477
0.20249
0.20251
0.202537
0.202574
0.202618
0.20267
0.202729
0.202793
0.202861
0.202931
0.203002
0.203072
0.203138
0.203199
0.203252
0.203294
0.203324
0.20334
0.20658
0.206589
0.206606
0.206633
0.206668
0.206712
0.206763
0.206822
0.206886
0.206953
0.207023
0.207094
0.207163
0.20723
0.207292
0.207347
0.207394
0.207432
0.207458
0.207471
0.210219
0.210229
0.21025
0.210282
0.210322
0.210372
0.210429
0.210493
0.21056
0.210631
0.210702
0.210773
0.210841
0.210906
0.210965
0.211016
0.21106
0.211094
0.211118
0.21113
0.213343
0.213355
0.213378
0.213413
0.213458
0.213512
0.213573
0.213641
0.213711
0.213784
0.213857
0.213928
0.213996
0.214058
0.214115
0.214164
0.214205
0.214237
0.214259
0.21427
0.215908
0.215921
0.215946
0.215983
0.216031
0.216089
0.216153
0.216223
0.216297
0.216371
0.216445
0.216516
0.216584
0.216645
0.2167
0.216748
0.216787
0.216817
0.216837
0.216848
0.217874
0.217888
0.217914
0.217953
0.218003
0.218063
0.21813
0.218202
0.218277
0.218353
0.218427
0.218499
0.218566
0.218626
0.21868
0.218726
0.218764
0.218793
0.218813
0.218823
0.219207
0.219221
0.219248
0.219288
0.21934
0.219401
0.219469
0.219543
0.219619
0.219695
0.21977
0.219842
0.219908
0.219969
0.220022
0.220067
0.220104
0.220132
0.220152
0.220161
0.219881
0.219895
0.219923
0.219963
0.220016
0.220077
0.220146
0.22022
0.220297
0.220374
0.220449
0.220521
0.220587
0.220647
0.2207
0.220745
0.220781
0.220809
0.220828
0.220838
0.140683
0.139383
0.13819
0.137511
0.13698
0.136635
0.136401
0.136191
0.136132
0.136105
0.136152
0.136173
0.136253
0.136498
0.136866
0.137308
0.137815
0.138483
0.139622
0.140991
0.139479
0.136302
0.134358
0.133976
0.133367
0.133132
0.132994
0.132587
0.132629
0.132563
0.132773
0.132681
0.132597
0.132872
0.133335
0.133866
0.134298
0.134663
0.136312
0.139893
0.142787
0.139509
0.137669
0.137416
0.136829
0.136505
0.136373
0.136058
0.136184
0.13611
0.136198
0.136104
0.136084
0.136417
0.136861
0.137229
0.137611
0.13801
0.139659
0.143057
0.150581
0.149104
0.148164
0.147824
0.147391
0.146986
0.146807
0.146728
0.146815
0.14678
0.146683
0.146695
0.146846
0.147156
0.147469
0.147646
0.148009
0.148578
0.149587
0.150794
0.15814
0.157645
0.157156
0.156817
0.156528
0.156299
0.156156
0.156077
0.156066
0.156066
0.156082
0.156141
0.156263
0.156458
0.156693
0.156941
0.157256
0.157659
0.158174
0.158638
0.165185
0.164984
0.164726
0.164497
0.164302
0.164152
0.16405
0.163994
0.163979
0.163994
0.164036
0.164109
0.164221
0.164376
0.164565
0.16478
0.165026
0.165302
0.165587
0.165795
0.171794
0.1717
0.171561
0.17142
0.171296
0.171199
0.171135
0.171103
0.171102
0.171128
0.171179
0.171255
0.171359
0.171489
0.171644
0.171817
0.172003
0.172193
0.172364
0.172473
0.178043
0.177996
0.17792
0.177839
0.177766
0.177711
0.177678
0.177668
0.177682
0.177718
0.177774
0.17785
0.177945
0.178058
0.178186
0.178323
0.178464
0.178598
0.178708
0.178773
0.183971
0.183947
0.183909
0.183867
0.183831
0.183807
0.183799
0.183808
0.183836
0.18388
0.18394
0.184015
0.184102
0.184201
0.184308
0.184419
0.184527
0.184625
0.184701
0.184744
0.189591
0.189581
0.189566
0.18955
0.18954
0.189539
0.189551
0.189576
0.189615
0.189667
0.18973
0.189804
0.189886
0.189974
0.190066
0.190157
0.190242
0.190316
0.190372
0.190402
0.194897
0.194896
0.194894
0.194896
0.194905
0.194922
0.19495
0.194988
0.195036
0.195094
0.19516
0.195233
0.195311
0.195391
0.195471
0.195548
0.195618
0.195677
0.19572
0.195742
0.199866
0.19987
0.199878
0.199893
0.199915
0.199945
0.199985
0.200033
0.20009
0.200153
0.200222
0.200294
0.200369
0.200443
0.200515
0.200582
0.200642
0.20069
0.200724
0.200742
0.204463
0.204471
0.204486
0.204509
0.204541
0.204582
0.204631
0.204688
0.204751
0.204818
0.204889
0.204962
0.205034
0.205105
0.205171
0.205231
0.205283
0.205324
0.205353
0.205368
0.208646
0.208656
0.208676
0.208706
0.208745
0.208794
0.20885
0.208914
0.208982
0.209053
0.209126
0.209199
0.20927
0.209337
0.209399
0.209454
0.209501
0.209538
0.209563
0.209576
0.212364
0.212376
0.212399
0.212434
0.21248
0.212534
0.212597
0.212665
0.212738
0.212812
0.212887
0.21296
0.21303
0.213096
0.213154
0.213206
0.213249
0.213283
0.213306
0.213317
0.215567
0.21558
0.215606
0.215645
0.215695
0.215754
0.215821
0.215894
0.21597
0.216047
0.216123
0.216197
0.216266
0.21633
0.216387
0.216436
0.216476
0.216507
0.216528
0.216539
0.218204
0.218219
0.218247
0.218288
0.218341
0.218404
0.218475
0.21855
0.218629
0.218708
0.218786
0.21886
0.218929
0.218991
0.219046
0.219094
0.219132
0.219161
0.219181
0.219192
0.22023
0.220245
0.220275
0.220318
0.220373
0.220439
0.220512
0.22059
0.220671
0.220751
0.220829
0.220904
0.220972
0.221034
0.221088
0.221134
0.221171
0.221199
0.221218
0.221228
0.221605
0.221621
0.221651
0.221696
0.221753
0.22182
0.221895
0.221974
0.222056
0.222137
0.222216
0.222291
0.222359
0.22242
0.222474
0.222519
0.222555
0.222582
0.222601
0.22261
0.222301
0.222317
0.222348
0.222393
0.222451
0.222519
0.222594
0.222675
0.222757
0.222839
0.222918
0.222992
0.223061
0.223122
0.223175
0.223219
0.223255
0.223282
0.2233
0.223309
0.147294
0.146577
0.145791
0.14523
0.144804
0.144508
0.144303
0.14415
0.144088
0.144074
0.144111
0.144163
0.14427
0.144482
0.144788
0.145162
0.145607
0.146175
0.146951
0.147699
0.147794
0.146656
0.145665
0.145143
0.144718
0.144447
0.144264
0.144087
0.144048
0.144034
0.144093
0.14412
0.144194
0.144413
0.144735
0.145113
0.145529
0.146056
0.147002
0.148217
0.150422
0.14894
0.147891
0.147502
0.147084
0.146815
0.146661
0.146486
0.146503
0.146479
0.146529
0.146534
0.146601
0.146841
0.147164
0.14749
0.147858
0.148311
0.149303
0.150833
0.156185
0.155479
0.154849
0.154476
0.154152
0.153901
0.15375
0.153661
0.153659
0.153654
0.153665
0.153713
0.153831
0.154041
0.154295
0.154554
0.154886
0.15533
0.155977
0.156648
0.162498
0.162184
0.161827
0.161544
0.161309
0.161127
0.161009
0.160945
0.160932
0.160941
0.160974
0.161042
0.161159
0.16133
0.161537
0.161768
0.162045
0.162378
0.162761
0.163072
0.168823
0.168675
0.168476
0.168288
0.168128
0.168004
0.167922
0.16788
0.167874
0.167895
0.167942
0.168017
0.168126
0.16827
0.168442
0.168636
0.168853
0.169089
0.169319
0.169478
0.175006
0.174932
0.174821
0.174706
0.174604
0.174527
0.174477
0.174457
0.174464
0.174496
0.17455
0.174627
0.174728
0.174852
0.174995
0.175153
0.17532
0.175486
0.175632
0.175722
0.181005
0.180968
0.180908
0.180842
0.180785
0.180744
0.180722
0.180722
0.180743
0.180784
0.180843
0.18092
0.181013
0.181122
0.181242
0.18137
0.181498
0.181618
0.181716
0.181772
0.186804
0.186786
0.186757
0.186725
0.1867
0.186687
0.186688
0.186706
0.18674
0.186789
0.186852
0.186928
0.187015
0.187111
0.187214
0.187318
0.187418
0.187508
0.187577
0.187615
0.192381
0.192374
0.192365
0.192357
0.192355
0.192363
0.192383
0.192416
0.192461
0.192517
0.192584
0.192659
0.192741
0.192828
0.192917
0.193004
0.193084
0.193154
0.193205
0.193233
0.197707
0.197708
0.197711
0.197719
0.197735
0.19776
0.197795
0.19784
0.197894
0.197957
0.198026
0.198101
0.19818
0.198259
0.198338
0.198413
0.19848
0.198535
0.198575
0.198597
0.202742
0.202748
0.20276
0.20278
0.202809
0.202847
0.202893
0.202948
0.203011
0.203079
0.203152
0.203227
0.203302
0.203377
0.203448
0.203514
0.203571
0.203618
0.20365
0.203668
0.207438
0.207447
0.207466
0.207495
0.207534
0.207581
0.207638
0.207701
0.207771
0.207844
0.207919
0.207994
0.208068
0.208139
0.208205
0.208264
0.208315
0.208355
0.208383
0.208397
0.211739
0.211751
0.211775
0.211811
0.211857
0.211913
0.211977
0.212048
0.212123
0.2122
0.212277
0.212354
0.212426
0.212495
0.212557
0.212611
0.212656
0.212692
0.212716
0.212729
0.215586
0.2156
0.215627
0.215668
0.215721
0.215783
0.215854
0.21593
0.216009
0.21609
0.21617
0.216247
0.216319
0.216385
0.216444
0.216495
0.216537
0.216569
0.216591
0.216602
0.218915
0.218931
0.218961
0.219006
0.219064
0.219131
0.219207
0.219288
0.219371
0.219455
0.219537
0.219614
0.219686
0.21975
0.219807
0.219855
0.219895
0.219924
0.219945
0.219955
0.221668
0.221684
0.221717
0.221765
0.221826
0.221898
0.221978
0.222062
0.222149
0.222235
0.222318
0.222396
0.222467
0.222531
0.222586
0.222632
0.222669
0.222697
0.222716
0.222726
0.223788
0.223806
0.22384
0.223891
0.223955
0.224029
0.224112
0.224199
0.224288
0.224376
0.22446
0.224538
0.224609
0.224672
0.224726
0.224771
0.224806
0.224833
0.224851
0.22486
0.225231
0.225249
0.225285
0.225337
0.225402
0.225479
0.225564
0.225653
0.225743
0.225832
0.225916
0.225995
0.226066
0.226128
0.226181
0.226225
0.22626
0.226285
0.226303
0.226311
0.225963
0.225981
0.226017
0.22607
0.226136
0.226214
0.226299
0.226389
0.22648
0.226569
0.226654
0.226733
0.226804
0.226866
0.226918
0.226962
0.226996
0.227021
0.227038
0.227047
0.154634
0.15427
0.153805
0.153407
0.15309
0.152857
0.152693
0.152584
0.152535
0.152532
0.15257
0.152639
0.152756
0.15294
0.153188
0.153492
0.153849
0.154272
0.154751
0.155131
0.155648
0.155197
0.154685
0.154296
0.153988
0.153767
0.153613
0.153506
0.153465
0.153465
0.153506
0.15357
0.153679
0.153862
0.15411
0.154406
0.15475
0.155164
0.155685
0.156159
0.158207
0.157715
0.157213
0.156867
0.156584
0.156379
0.156243
0.156148
0.156124
0.156127
0.156167
0.156227
0.156334
0.156515
0.156752
0.157023
0.157338
0.15772
0.158232
0.158741
0.16253
0.162216
0.161856
0.161572
0.161339
0.161162
0.161046
0.160979
0.160963
0.160974
0.161011
0.161079
0.161193
0.16136
0.161568
0.161804
0.16208
0.162409
0.162792
0.163111
0.167738
0.167563
0.167333
0.167126
0.166951
0.166817
0.166729
0.166683
0.166675
0.166695
0.16674
0.166815
0.166925
0.167074
0.167253
0.167455
0.167685
0.16794
0.168199
0.168384
0.173326
0.173231
0.173093
0.172954
0.172835
0.172743
0.172684
0.172658
0.172662
0.172691
0.172744
0.172821
0.172925
0.173056
0.173209
0.173379
0.173562
0.173751
0.173923
0.174033
0.179048
0.178997
0.178917
0.178832
0.178758
0.178703
0.178672
0.178665
0.178682
0.17872
0.178779
0.178857
0.178954
0.17907
0.1792
0.17934
0.179485
0.179624
0.179741
0.17981
0.184782
0.184755
0.184712
0.184666
0.184628
0.184603
0.184596
0.184607
0.184637
0.184684
0.184747
0.184825
0.184916
0.185019
0.185131
0.185246
0.185361
0.185465
0.185547
0.185593
0.190453
0.190441
0.190423
0.190404
0.190393
0.190392
0.190406
0.190433
0.190475
0.19053
0.190597
0.190675
0.190761
0.190854
0.19095
0.191047
0.191138
0.191218
0.191279
0.191312
0.196005
0.196003
0.196001
0.196003
0.196012
0.196031
0.196061
0.196102
0.196155
0.196217
0.196288
0.196366
0.196448
0.196533
0.196618
0.1967
0.196775
0.196838
0.196885
0.196909
0.201384
0.201388
0.201397
0.201414
0.201438
0.201473
0.201517
0.201571
0.201633
0.201702
0.201776
0.201854
0.201933
0.202012
0.202089
0.20216
0.202223
0.202275
0.202312
0.202332
0.206529
0.206538
0.206556
0.206583
0.20662
0.206667
0.206723
0.206787
0.206858
0.206933
0.20701
0.207089
0.207166
0.207241
0.207311
0.207374
0.207429
0.207473
0.207503
0.207519
0.211376
0.211388
0.211412
0.211449
0.211496
0.211553
0.211619
0.211692
0.21177
0.21185
0.211931
0.21201
0.212086
0.212158
0.212223
0.21228
0.212329
0.212367
0.212393
0.212406
0.215854
0.215869
0.215898
0.215941
0.215997
0.216063
0.216137
0.216218
0.216302
0.216387
0.21647
0.216551
0.216626
0.216695
0.216757
0.216809
0.216853
0.216886
0.216909
0.216921
0.219887
0.219904
0.219938
0.219987
0.220049
0.220123
0.220204
0.220291
0.220381
0.22047
0.220556
0.220638
0.220712
0.22078
0.220838
0.220887
0.220927
0.220957
0.220977
0.220988
0.2234
0.223419
0.223456
0.22351
0.223578
0.223657
0.223745
0.223837
0.223931
0.224024
0.224112
0.224195
0.224269
0.224335
0.224391
0.224438
0.224474
0.224502
0.22452
0.224529
0.226319
0.226339
0.226379
0.226437
0.226509
0.226594
0.226686
0.226783
0.226881
0.226976
0.227066
0.227149
0.227224
0.227288
0.227342
0.227386
0.227421
0.227446
0.227463
0.227471
0.228577
0.228598
0.22864
0.2287
0.228776
0.228864
0.228961
0.229061
0.229161
0.229259
0.22935
0.229434
0.229508
0.229571
0.229624
0.229667
0.229699
0.229723
0.229739
0.229746
0.230118
0.230139
0.230183
0.230245
0.230323
0.230414
0.230512
0.230615
0.230717
0.230816
0.230908
0.230992
0.231066
0.231129
0.231181
0.231222
0.231253
0.231276
0.231291
0.231298
0.2309
0.230922
0.230966
0.231029
0.231109
0.2312
0.2313
0.231404
0.231507
0.231606
0.231699
0.231783
0.231857
0.231919
0.23197
0.232011
0.232042
0.232064
0.232078
0.232085
0.161852
0.161666
0.161399
0.161139
0.160919
0.16075
0.160631
0.160556
0.160526
0.160535
0.160578
0.160653
0.160767
0.160925
0.161127
0.161367
0.161639
0.161935
0.162226
0.162427
0.16295
0.162748
0.162475
0.162223
0.162012
0.161851
0.161738
0.161669
0.161643
0.161654
0.161699
0.161773
0.161884
0.16204
0.162238
0.162471
0.162735
0.163025
0.163322
0.163539
0.165293
0.165095
0.164839
0.16461
0.164419
0.164274
0.164175
0.164116
0.164099
0.164115
0.164161
0.164234
0.164343
0.164495
0.164683
0.164901
0.165145
0.165415
0.165697
0.165911
0.168881
0.168735
0.168535
0.168348
0.16819
0.168068
0.167988
0.167944
0.167938
0.167959
0.168007
0.168083
0.168191
0.168333
0.168505
0.168699
0.168916
0.169149
0.169379
0.169539
0.17335
0.173256
0.173117
0.172979
0.17286
0.172769
0.172711
0.172684
0.172688
0.172717
0.17277
0.172848
0.172952
0.173082
0.173235
0.173405
0.173588
0.173776
0.173948
0.174058
0.178369
0.178312
0.178223
0.178131
0.17805
0.17799
0.177955
0.177946
0.177962
0.177999
0.178057
0.178136
0.178235
0.178353
0.178487
0.178632
0.178783
0.178929
0.179054
0.179129
0.18371
0.183677
0.183626
0.183571
0.183524
0.183492
0.18348
0.183488
0.183516
0.183562
0.183625
0.183703
0.183797
0.183904
0.184021
0.184143
0.184266
0.184379
0.18447
0.184522
0.189226
0.189209
0.189184
0.189158
0.189138
0.189132
0.18914
0.189164
0.189204
0.189258
0.189325
0.189404
0.189493
0.189591
0.189693
0.189797
0.189896
0.189984
0.190052
0.19009
0.194812
0.194807
0.1948
0.194796
0.194799
0.194813
0.194839
0.194878
0.19493
0.194992
0.195063
0.195143
0.195228
0.195317
0.195408
0.195496
0.195578
0.195648
0.1957
0.195728
0.200387
0.200389
0.200395
0.200408
0.200429
0.200461
0.200503
0.200555
0.200617
0.200686
0.200762
0.200842
0.200925
0.201008
0.201089
0.201166
0.201234
0.201291
0.201332
0.201354
0.205871
0.205879
0.205896
0.205921
0.205957
0.206003
0.206059
0.206124
0.206195
0.206272
0.206351
0.206432
0.206513
0.206591
0.206665
0.206733
0.206792
0.206839
0.206873
0.20689
0.211188
0.2112
0.211224
0.211261
0.211309
0.211368
0.211436
0.211511
0.211591
0.211674
0.211758
0.21184
0.21192
0.211994
0.212063
0.212123
0.212174
0.212215
0.212243
0.212257
0.216253
0.216269
0.2163