# vtk DataFile Version 2.0
Pressure 3D1D coupled problem
ASCII
DATASET UNSTRUCTURED_GRID
POINTS 9261 float
0 0 0
0 0 0.1
0 0 0.2
0 0 0.3
0 0 0.4
0 0 0.5
0 0 0.6
0 0 0.7
0 0 0.8
0 0 0.9
0 0 1
0 0 1.1
0 0 1.2
0 0 1.3
0 0 1.4
0 0 1.5
0 0 1.6
0 0 1.7
0 0 1.8
0 0 1.9
0 0 2
0 0.1 0
0 0.1 0.1
0 0.1 0.2
0 0.1 0.3
0 0.1 0.4
0 0.1 0.5
0 0.1 0.6
0 0.1 0.7
0 0.1 0.8
0 0.1 0.9
0 0.1 1
0 0.1 1.1
0 0.1 1.2
0 0.1 1.3
0 0.1 1.4
0 0.1 1.5
0 0.1 1.6
0 0.1 1.7
0 0.1 1.8
0 0.1 1.9
0 0.1 2
0 0.2 0
0 0.2 0.1
0 0.2 0.2
0 0.2 0.3
0 0.2 0.4
0 0.2 0.5
0 0.2 0.6
0 0.2 0.7
0 0.2 0.8
0 0.2 0.9
0 0.2 1
0 0.2 1.1
0 0.2 1.2
0 0.2 1.3
0 0.2 1.4
0 0.2 1.5
0 0.2 1.6
0 0.2 1.7
0 0.2 1.8
0 0.2 1.9
0 0.2 2
0 0.3 0
0 0.3 0.1
0 0.3 0.2
0 0.3 0.3
0 0.3 0.4
0 0.3 0.5
0 0.3 0.6
0 0.3 0.7
0 0.3 0.8
0 0.3 0.9
0 0.3 1
0 0.3 1.1
0 0.3 1.2
0 0.3 1.3
0 0.3 1.4
0 0.3 1.5
0 0.3 1.6
0 0.3 1.7
0 0.3 1.8
0 0.3 1.9
0 0.3 2
0 0.4 0
0 0.4 0.1
0 0.4 0.2
0 0.4 0.3
0 0.4 0.4
0 0.4 0.5
0 0.4 0.6
0 0.4 0.7
0 0.4 0.8
0 0.4 0.9
0 0.4 1
0 0.4 1.1
0 0.4 1.2
0 0.4 1.3
0 0.4 1.4
0 0.4 1.5
0 0.4 1.6
0 0.4 1.7
0 0.4 1.8
0 0.4 1.9
0 0.4 2
0 0.5 0
0 0.5 0.1
0 0.5 0.2
0 0.5 0.3
0 0.5 0.4
0 0.5 0.5
0 0.5 0.6
0 0.5 0.7
0 0.5 0.8
0 0.5 0.9
0 0.5 1
0 0.5 1.1
0 0.5 1.2
0 0.5 1.3
0 0.5 1.4
0 0.5 1.5
0 0.5 1.6
0 0.5 1.7
0 0.5 1.8
0 0.5 1.9
0 0.5 2
0 0.6 0
0 0.6 0.1
0 0.6 0.2
0 0.6 0.3
0 0.6 0.4
0 0.6 0.5
0 0.6 0.6
0 0.6 0.7
0 0.6 0.8
0 0.6 0.9
0 0.6 1
0 0.6 1.1
0 0.6 1.2
0 0.6 1.3
0 0.6 1.4
0 0.6 1.5
0 0.6 1.6
0 0.6 1.7
0 0.6 1.8
0 0.6 1.9
0 0.6 2
0 0.7 0
0 0.7 0.1
0 0.7 0.2
0 0.7 0.3
0 0.7 0.4
0 0.7 0.5
0 0.7 0.6
0 0.7 0.7
0 0.7 0.8
0 0.7 0.9
0 0.7 1
0 0.7 1.1
0 0.7 1.2
0 0.7 1.3
0 0.7 1.4
0 0.7 1.5
0 0.7 1.6
0 0.7 1.7
0 0.7 1.8
0 0.7 1.9
0 0.7 2
0 0.8 0
0 0.8 0.1
0 0.8 0.2
0 0.8 0.3
0 0.8 0.4
0 0.8 0.5
0 0.8 0.6
0 0.8 0.7
0 0.8 0.8
0 0.8 0.9
0 0.8 1
0 0.8 1.1
0 0.8 1.2
0 0.8 1.3
0 0.8 1.4
0 0.8 1.5
0 0.8 1.6
0 0.8 1.7
0 0.8 1.8
0 0.8 1.9
0 0.8 2
0 0.9 0
0 0.9 0.1
0 0.9 0.2
0 0.9 0.3
0 0.9 0.4
0 0.9 0.5
0 0.9 0.6
0 0.9 0.7
0 0.9 0.8
0 0.9 0.9
0 0.9 1
0 0.9 1.1
0 0.9 1.2
0 0.9 1.3
0 0.9 1.4
0 0.9 1.5
0 0.9 1.6
0 0.9 1.7
0 0.9 1.8
0 0.9 1.9
0 0.9 2
0 1 0
0 1 0.1
0 1 0.2
0 1 0.3
0 1 0.4
0 1 0.5
0 1 0.6
0 1 0.7
0 1 0.8
0 1 0.9
0 1 1
0 1 1.1
0 1 1.2
0 1 1.3
0 1 1.4
0 1 1.5
0 1 1.6
0 1 1.7
0 1 1.8
0 1 1.9
0 1 2
0 1.1 0
0 1.1 0.1
0 1.1 0.2
0 1.1 0.3
0 1.1 0.4
0 1.1 0.5
0 1.1 0.6
0 1.1 0.7
0 1.1 0.8
0 1.1 0.9
0 1.1 1
0 1.1 1.1
0 1.1 1.2
0 1.1 1.3
0 1.1 1.4
0 1.1 1.5
0 1.1 1.6
0 1.1 1.7
0 1.1 1.8
0 1.1 1.9
0 1.1 2
0 1.2 0
0 1.2 0.1
0 1.2 0.2
0 1.2 0.3
0 1.2 0.4
0 1.2 0.5
0 1.2 0.6
0 1.2 0.7
0 1.2 0.8
0 1.2 0.9
0 1.2 1
0 1.2 1.1
0 1.2 1.2
0 1.2 1.3
0 1.2 1.4
0 1.2 1.5
0 1.2 1.6
0 1.2 1.7
0 1.2 1.8
0 1.2 1.9
0 1.2 2
0 1.3 0
0 1.3 0.1
0 1.3 0.2
0 1.3 0.3
0 1.3 0.4
0 1.3 0.5
0 1.3 0.6
0 1.3 0.7
0 1.3 0.8
0 1.3 0.9
0 1.3 1
0 1.3 1.1
0 1.3 1.2
0 1.3 1.3
0 1.3 1.4
0 1.3 1.5
0 1.3 1.6
0 1.3 1.7
0 1.3 1.8
0 1.3 1.9
0 1.3 2
0 1.4 0
0 1.4 0.1
0 1.4 0.2
0 1.4 0.3
0 1.4 0.4
0 1.4 0.5
0 1.4 0.6
0 1.4 0.7
0 1.4 0.8
0 1.4 0.9
0 1.4 1
0 1.4 1.1
0 1.4 1.2
0 1.4 1.3
0 1.4 1.4
0 1.4 1.5
0 1.4 1.6
0 1.4 1.7
0 1.4 1.8
0 1.4 1.9
0 1.4 2
0 1.5 0
0 1.5 0.1
0 1.5 0.2
0 1.5 0.3
0 1.5 0.4
0 1.5 0.5
0 1.5 0.6
0 1.5 0.7
0 1.5 0.8
0 1.5 0.9
0 1.5 1
0 1.5 1.1
0 1.5 1.2
0 1.5 1.3
0 1.5 1.4
0 1.5 1.5
0 1.5 1.6
0 1.5 1.7
0 1.5 1.8
0 1.5 1.9
0 1.5 2
0 1.6 0
0 1.6 0.1
0 1.6 0.2
0 1.6 0.3
0 1.6 0.4
0 1.6 0.5
0 1.6 0.6
0 1.6 0.7
0 1.6 0.8
0 1.6 0.9
0 1.6 1
0 1.6 1.1
0 1.6 1.2
0 1.6 1.3
0 1.6 1.4
0 1.6 1.5
0 1.6 1.6
0 1.6 1.7
0 1.6 1.8
0 1.6 1.9
0 1.6 2
0 1.7 0
0 1.7 0.1
0 1.7 0.2
0 1.7 0.3
0 1.7 0.4
0 1.7 0.5
0 1.7 0.6
0 1.7 0.7
0 1.7 0.8
0 1.7 0.9
0 1.7 1
0 1.7 1.1
0 1.7 1.2
0 1.7 1.3
0 1.7 1.4
0 1.7 1.5
0 1.7 1.6
0 1.7 1.7
0 1.7 1.8
0 1.7 1.9
0 1.7 2
0 1.8 0
0 1.8 0.1
0 1.8 0.2
0 1.8 0.3
0 1.8 0.4
0 1.8 0.5
0 1.8 0.6
0 1.8 0.7
0 1.8 0.8
0 1.8 0.9
0 1.8 1
0 1.8 1.1
0 1.8 1.2
0 1.8 1.3
0 1.8 1.4
0 1.8 1.5
0 1.8 1.6
0 1.8 1.7
0 1.8 1.8
0 1.8 1.9
0 1.8 2
0 1.9 0
0 1.9 0.1
0 1.9 0.2
0 1.9 0.3
0 1.9 0.4
0 1.9 0.5
0 1.9 0.6
0 1.9 0.7
0 1.9 0.8
0 1.9 0.9
0 1.9 1
0 1.9 1.1
0 1.9 1.2
0 1.9 1.3
0 1.9 1.4
0 1.9 1.5
0 1.9 1.6
0 1.9 1.7
0 1.9 1.8
0 1.9 1.9
0 1.9 2
0 2 0
0 2 0.1
0 2 0.2
0 2 0.3
0 2 0.4
0 2 0.5
0 2 0.6
0 2 0.7
0 2 0.8
0 2 0.9
0 2 1
0 2 1.1
0 2 1.2
0 2 1.3
0 2 1.4
0 2 1.5
0 2 1.6
0 2 1.7
0 2 1.8
0 2 1.9
0 2 2
0.1 0 0
0.1 0 0.1
0.1 0 0.2
0.1 0 0.3
0.1 0 0.4
0.1 0 0.5
0.1 0 0.6
0.1 0 0.7
0.1 0 0.8
0.1 0 0.9
0.1 0 1
0.1 0 1.1
0.1 0 1.2
0.1 0 1.3
0.1 0 1.4
0.1 0 1.5
0.1 0 1.6
0.1 0 1.7
0.1 0 1.8
0.1 0 1.9
0.1 0 2
0.1 0.1 0
0.1 0.1 0.1
0.1 0.1 0.2
0.1 0.1 0.3
0.1 0.1 0.4
0.1 0.1 0.5
0.1 0.1 0.6
0.1 0.1 0.7
0.1 0.1 0.8
0.1 0.1 0.9
0.1 0.1 1
0.1 0.1 1.1
0.1 0.1 1.2
0.1 0.1 1.3
0.1 0.1 1.4
0.1 0.1 1.5
0.1 0.1 1.6
0.1 0.1 1.7
0.1 0.1 1.8
0.1 0.1 1.9
0.1 0.1 2
0.1 0.2 0
0.1 0.2 0.1
0.1 0.2 0.2
0.1 0.2 0.3
0.1 0.2 0.4
0.1 0.2 0.5
0.1 0.2 0.6
0.1 0.2 0.7
0.1 0.2 0.8
0.1 0.2 0.9
0.1 0.2 1
0.1 0.2 1.1
0.1 0.2 1.2
0.1 0.2 1.3
0.1 0.2 1.4
0.1 0.2 1.5
0.1 0.2 1.6
0.1 0.2 1.7
0.1 0.2 1.8
0.1 0.2 1.9
0.1 0.2 2
0.1 0.3 0
0.1 0.3 0.1
0.1 0.3 0.2
0.1 0.3 0.3
0.1 0.3 0.4
0.1 0.3 0.5
0.1 0.3 0.6
0.1 0.3 0.7
0.1 0.3 0.8
0.1 0.3 0.9
0.1 0.3 1
0.1 0.3 1.1
0.1 0.3 1.2
0.1 0.3 1.3
0.1 0.3 1.4
0.1 0.3 1.5
0.1 0.3 1.6
0.1 0.3 1.7
0.1 0.3 1.8
0.1 0.3 1.9
0.1 0.3 2
0.1 0.4 0
0.1 0.4 0.1
0.1 0.4 0.2
0.1 0.4 0.3
0.1 0.4 0.4
0.1 0.4 0.5
0.1 0.4 0.6
0.1 0.4 0.7
0.1 0.4 0.8
0.1 0.4 0.9
0.1 0.4 1
0.1 0.4 1.1
0.1 0.4 1.2
0.1 0.4 1.3
0.1 0.4 1.4
0.1 0.4 1.5
0.1 0.4 1.6
0.1 0.4 1.7
0.1 0.4 1.8
0.1 0.4 1.9
0.1 0.4 2
0.1 0.5 0
0.1 0.5 0.1
0.1 0.5 0.2
0.1 0.5 0.3
0.1 0.5 0.4
0.1 0.5 0.5
0.1 0.5 0.6
0.1 0.5 0.7
0.1 0.5 0.8
0.1 0.5 0.9
0.1 0.5 1
0.1 0.5 1.1
0.1 0.5 1.2
0.1 0.5 1.3
0.1 0.5 1.4
0.1 0.5 1.5
0.1 0.5 1.6
0.1 0.5 1.7
0.1 0.5 1.8
0.1 0.5 1.9
0.1 0.5 2
0.1 0.6 0
0.1 0.6 0.1
0.1 0.6 0.2
0.1 0.6 0.3
0.1 0.6 0.4
0.1 0.6 0.5
0.1 0.6 0.6
0.1 0.6 0.7
0.1 0.6 0.8
0.1 0.6 0.9
0.1 0.6 1
0.1 0.6 1.1
0.1 0.6 1.2
0.1 0.6 1.3
0.1 0.6 1.4
0.1 0.6 1.5
0.1 0.6 1.6
0.1 0.6 1.7
0.1 0.6 1.8
0.1 0.6 1.9
0.1 0.6 2
0.1 0.7 0
0.1 0.7 0.1
0.1 0.7 0.2
0.1 0.7 0.3
0.1 0.7 0.4
0.1 0.7 0.5
0.1 0.7 0.6
0.1 0.7 0.7
0.1 0.7 0.8
0.1 0.7 0.9
0.1 0.7 1
0.1 0.7 1.1
0.1 0.7 1.2
0.1 0.7 1.3
0.1 0.7 1.4
0.1 0.7 1.5
0.1 0.7 1.6
0.1 0.7 1.7
0.1 0.7 1.8
0.1 0.7 1.9
0.1 0.7 2
0.1 0.8 0
0.1 0.8 0.1
0.1 0.8 0.2
0.1 0.8 0.3
0.1 0.8 0.4
0.1 0.8 0.5
0.1 0.8 0.6
0.1 0.8 0.7
0.1 0.8 0.8
0.1 0.8 0.9
0.1 0.8 1
0.1 0.8 1.1
0.1 0.8 1.2
0.1 0.8 1.3
0.1 0.8 1.4
0.1 0.8 1.5
0.1 0.8 1.6
0.1 0.8 1.7
0.1 0.8 1.8
0.1 0.8 1.9
0.1 0.8 2
0.1 0.9 0
0.1 0.9 0.1
0.1 0.9 0.2
0.1 0.9 0.3
0.1 0.9 0.4
0.1 0.9 0.5
0.1 0.9 0.6
0.1 0.9 0.7
0.1 0.9 0.8
0.1 0.9 0.9
0.1 0.9 1
0.1 0.9 1.1
0.1 0.9 1.2
0.1 0.9 1.3
0.1 0.9 1.4
0.1 0.9 1.5
0.1 0.9 1.6
0.1 0.9 1.7
0.1 0.9 1.8
0.1 0.9 1.9
0.1 0.9 2
0.1 1 0
0.1 1 0.1
0.1 1 0.2
0.1 1 0.3
0.1 1 0.4
0.1 1 0.5
0.1 1 0.6
0.1 1 0.7
0.1 1 0.8
0.1 1 0.9
0.1 1 1
0.1 1 1.1
0.1 1 1.2
0.1 1 1.3
0.1 1 1.4
0.1 1 1.5
0.1 1 1.6
0.1 1 1.7
0.1 1 1.8
0.1 1 1.9
0.1 1 2
0.1 1.1 0
0.1 1.1 0.1
0.1 1.1 0.2
0.1 1.1 0.3
0.1 1.1 0.4
0.1 1.1 0.5
0.1 1.1 0.6
0.1 1.1 0.7
0.1 1.1 0.8
0.1 1.1 0.9
0.1 1.1 1
0.1 1.1 1.1
0.1 1.1 1.2
0.1 1.1 1.3
0.1 1.1 1.4
0.1 1.1 1.5
0.1 1.1 1.6
0.1 1.1 1.7
0.1 1.1 1.8
0.1 1.1 1.9
0.1 1.1 2
0.1 1.2 0
0.1 1.2 0.1
0.1 1.2 0.2
0.1 1.2 0.3
0.1 1.2 0.4
0.1 1.2 0.5
0.1 1.2 0.6
0.1 1.2 0.7
0.1 1.2 0.8
0.1 1.2 0.9
0.1 1.2 1
0.1 1.2 1.1
0.1 1.2 1.2
0.1 1.2 1.3
0.1 1.2 1.4
0.1 1.2 1.5
0.1 1.2 1.6
0.1 1.2 1.7
0.1 1.2 1.8
0.1 1.2 1.9
0.1 1.2 2
0.1 1.3 0
0.1 1.3 0.1
0.1 1.3 0.2
0.1 1.3 0.3
0.1 1.3 0.4
0.1 1.3 0.5
0.1 1.3 0.6
0.1 1.3 0.7
0.1 1.3 0.8
0.1 1.3 0.9
0.1 1.3 1
0.1 1.3 1.1
0.1 1.3 1.2
0.1 1.3 1.3
0.1 1.3 1.4
0.1 1.3 1.5
0.1 1.3 1.6
0.1 1.3 1.7
0.1 1.3 1.8
0.1 1.3 1.9
0.1 1.3 2
0.1 1.4 0
0.1 1.4 0.1
0.1 1.4 0.2
0.1 1.4 0.3
0.1 1.4 0.4
0.1 1.4 0.5
0.1 1.4 0.6
0.1 1.4 0.7
0.1 1.4 0.8
0.1 1.4 0.9
0.1 1.4 1
0.1 1.4 1.1
0.1 1.4 1.2
0.1 1.4 1.3
0.1 1.4 1.4
0.1 1.4 1.5
0.1 1.4 1.6
0.1 1.4 1.7
0.1 1.4 1.8
0.1 1.4 1.9
0.1 1.4 2
0.1 1.5 0
0.1 1.5 0.1
0.1 1.5 0.2
0.1 1.5 0.3
0.1 1.5 0.4
0.1 1.5 0.5
0.1 1.5 0.6
0.1 1.5 0.7
0.1 1.5 0.8
0.1 1.5 0.9
0.1 1.5 1
0.1 1.5 1.1
0.1 1.5 1.2
0.1 1.5 1.3
0.1 1.5 1.4
0.1 1.5 1.5
0.1 1.5 1.6
0.1 1.5 1.7
0.1 1.5 1.8
0.1 1.5 1.9
0.1 1.5 2
0.1 1.6 0
0.1 1.6 0.1
0.1 1.6 0.2
0.1 1.6 0.3
0.1 1.6 0.4
0.1 1.6 0.5
0.1 1.6 0.6
0.1 1.6 0.7
0.1 1.6 0.8
0.1 1.6 0.9
0.1 1.6 1
0.1 1.6 1.1
0.1 1.6 1.2
0.1 1.6 1.3
0.1 1.6 1.4
0.1 1.6 1.5
0.1 1.6 1.6
0.1 1.6 1.7
0.1 1.6 1.8
0.1 1.6 1.9
0.1 1.6 2
0.1 1.7 0
0.1 1.7 0.1
0.1 1.7 0.2
0.1 1.7 0.3
0.1 1.7 0.4
0.1 1.7 0.5
0.1 1.7 0.6
0.1 1.7 0.7
0.1 1.7 0.8
0.1 1.7 0.9
0.1 1.7 1
0.1 1.7 1.1
0.1 1.7 1.2
0.1 1.7 1.3
0.1 1.7 1.4
0.1 1.7 1.5
0.1 1.7 1.6
0.1 1.7 1.7
0.1 1.7 1.8
0.1 1.7 1.9
0.1 1.7 2
0.1 1.8 0
0.1 1.8 0.1
0.1 1.8 0.2
0.1 1.8 0.3
0.1 1.8 0.4
0.1 1.8 0.5
0.1 1.8 0.6
0.1 1.8 0.7
0.1 1.8 0.8
0.1 1.8 0.9
0.1 1.8 1
0.1 1.8 1.1
0.1 1.8 1.2
0.1 1.8 1.3
0.1 1.8 1.4
0.1 1.8 1.5
0.1 1.8 1.6
0.1 1.8 1.7
0.1 1.8 1.8
0.1 1.8 1.9
0.1 1.8 2
0.1 1.9 0
0.1 1.9 0.1
0.1 1.9 0.2
0.1 1.9 0.3
0.1 1.9 0.4
0.1 1.9 0.5
0.1 1.9 0.6
0.1 1.9 0.7
0.1 1.9 0.8
0.1 1.9 0.9
0.1 1.9 1
0.1 1.9 1.1
0.1 1.9 1.2
0.1 1.9 1.3
0.1 1.9 1.4
0.1 1.9 1.5
0.1 1.9 1.6
0.1 1.9 1.7
0.1 1.9 1.8
0.1 1.9 1.9
0.1 1.9 2
0.1 2 0
0.1 2 0.1
0.1 2 0.2
0.1 2 0.3
0.1 2 0.4
0.1 2 0.5
0.1 2 0.6
0.1 2 0.7
0.1 2 0.8
0.1 2 0.9
0.1 2 1
0.1 2 1.1
0.1 2 1.2
0.1 2 1.3
0.1 2 1.4
0.1 2 1.5
0.1 2 1.6
0.1 2 1.7
0.1 2 1.8
0.1 2 1.9
0.1 2 2
0.2 0 0
0.2 0 0.1
0.2 0 0.2
0.2 0 0.3
0.2 0 0.4
0.2 0 0.5
0.2 0 0.6
0.2 0 0.7
0.2 0 0.8
0.2 0 0.9
0.2 0 1
0.2 0 1.1
0.2 0 1.2
0.2 0 1.3
0.2 0 1.4
0.2 0 1.5
0.2 0 1.6
0.2 0 1.7
0.2 0 1.8
0.2 0 1.9
0.2 0 2
0.2 0.1 0
0.2 0.1 0.1
0.2 0.1 0.2
0.2 0.1 0.3
0.2 0.1 0.4
0.2 0.1 0.5
0.2 0.1 0.6
0.2 0.1 0.7
0.2 0.1 0.8
0.2 0.1 0.9
0.2 0.1 1
0.2 0.1 1.1
0.2 0.1 1.2
0.2 0.1 1.3
0.2 0.1 1.4
0.2 0.1 1.5
0.2 0.1 1.6
0.2 0.1 1.7
0.2 0.1 1.8
0.2 0.1 1.9
0.2 0.1 2
0.2 0.2 0
0.2 0.2 0.1
0.2 0.2 0.2
0.2 0.2 0.3
0.2 0.2 0.4
0.2 0.2 0.5
0.2 0.2 0.6
0.2 0.2 0.7
0.2 0.2 0.8
0.2 0.2 0.9
0.2 0.2 1
0.2 0.2 1.1
0.2 0.2 1.2
0.2 0.2 1.3
0.2 0.2 1.4
0.2 0.2 1.5
0.2 0.2 1.6
0.2 0.2 1.7
0.2 0.2 1.8
0.2 0.2 1.9
[...]
CELL_DATA 8000
SCALARS Phi_sigma_(3D) float 1
LOOKUP_TABLE default
0.177102
0.175937
0.174657
0.173724
0.173
0.172474
0.172125
0.1719
0.171811
0.171764
0.171764
0.171818
0.171985
0.172316
0.172769
0.173314
0.174018
0.174969
0.176228
0.177368
0.177814
0.176112
0.174595
0.173728
0.173009
0.172488
0.172166
0.171937
0.171895
0.171846
0.17184
0.171862
0.172007
0.17236
0.172829
0.173339
0.173999
0.174923
0.176404
0.178062
0.18176
0.180103
0.178639
0.17784
0.177193
0.176754
0.176473
0.176239
0.176192
0.176158
0.176194
0.176218
0.176333
0.17665
0.177098
0.177606
0.178214
0.17904
0.180451
0.182139
0.189295
0.188378
0.187376
0.18668
0.186168
0.185838
0.185599
0.185399
0.185315
0.185306
0.185381
0.185446
0.18556
0.185808
0.186186
0.18667
0.187214
0.18789
0.188863
0.189872
0.197857
0.197395
0.196806
0.196312
0.19593
0.195661
0.195468
0.19533
0.195268
0.19527
0.19533
0.195418
0.195554
0.195774
0.196083
0.196467
0.196907
0.197422
0.198023
0.198526
0.20621
0.205976
0.205641
0.20532
0.205054
0.204854
0.204712
0.204621
0.204585
0.204599
0.204658
0.204753
0.204892
0.205085
0.205336
0.205635
0.205971
0.206336
0.206701
0.206959
0.214037
0.213915
0.213726
0.213527
0.213353
0.213217
0.213123
0.213069
0.213057
0.213084
0.213147
0.213242
0.213373
0.213541
0.213744
0.213977
0.214228
0.214483
0.21471
0.214853
0.221301
0.221236
0.22113
0.221013
0.220907
0.220824
0.22077
0.220747
0.220755
0.220794
0.220861
0.220955
0.221075
0.22122
0.221387
0.221569
0.221757
0.221936
0.222084
0.222171
0.228036
0.228002
0.227945
0.227881
0.227823
0.22778
0.227759
0.227761
0.227786
0.227835
0.227906
0.227997
0.228107
0.228233
0.228372
0.228517
0.228661
0.22879
0.228892
0.228949
0.234277
0.23426
0.234233
0.234204
0.23418
0.234168
0.234172
0.234193
0.234233
0.234291
0.234365
0.234454
0.234555
0.234667
0.234784
0.234903
0.235015
0.235113
0.235187
0.235227
0.240046
0.240041
0.240032
0.240026
0.240026
0.240036
0.24006
0.240097
0.240148
0.240212
0.240289
0.240376
0.240472
0.240572
0.240674
0.240774
0.240865
0.240942
0.240998
0.241028
0.24535
0.245351
0.245355
0.245364
0.245381
0.245407
0.245445
0.245494
0.245554
0.245625
0.245704
0.24579
0.245881
0.245973
0.246064
0.24615
0.246227
0.246291
0.246336
0.24636
0.250178
0.250183
0.250195
0.250215
0.250244
0.250282
0.250331
0.250389
0.250457
0.250532
0.250613
0.250698
0.250786
0.250872
0.250956
0.251033
0.2511
0.251154
0.251193
0.251213
0.254509
0.254517
0.254535
0.254562
0.2546
0.254647
0.254704
0.254769
0.254842
0.254921
0.255004
0.255089
0.255174
0.255257
0.255334
0.255405
0.255466
0.255514
0.255548
0.255565
0.258314
0.258325
0.258346
0.258379
0.258423
0.258476
0.258539
0.25861
0.258687
0.258769
0.258853
0.258938
0.259022
0.259102
0.259176
0.259242
0.259298
0.259343
0.259373
0.259389
0.26156
0.261572
0.261597
0.261633
0.261681
0.261739
0.261807
0.261881
0.261962
0.262046
0.262132
0.262217
0.262299
0.262377
0.262449
0.262512
0.262565
0.262607
0.262635
0.26265
0.264212
0.264225
0.264251
0.26429
0.264342
0.264403
0.264474
0.264552
0.264635
0.26472
0.264807
0.264892
0.264974
0.265051
0.26512
0.265181
0.265232
0.265272
0.265299
0.265313
0.266236
0.26625
0.266278
0.266319
0.266372
0.266436
0.266509
0.266589
0.266674
0.266761
0.266848
0.266933
0.267014
0.26709
0.267159
0.267218
0.267268
0.267306
0.267333
0.267346
0.267605
0.26762
0.267648
0.26769
0.267745
0.26781
0.267885
0.267966
0.268051
0.268139
0.268227
0.268312
0.268393
0.268468
0.268536
0.268594
0.268643
0.268681
0.268707
0.26872
0.268297
0.268311
0.26834
0.268383
0.268438
0.268504
0.268579
0.268661
0.268747
0.268835
0.268923
0.269008
0.269089
0.269164
0.269231
0.269289
0.269337
0.269375
0.2694
0.269413
0.177939
0.176261
0.174758
0.173894
0.17318
0.172666
0.172346
0.172113
0.172067
0.17202
0.172019
0.172043
0.172186
0.172534
0.173002
0.173517
0.174177
0.175093
0.176558
0.178202
0.176684
0.172514
0.170237
0.169874
0.169035
0.168436
0.168206
0.167878
0.168087
0.167968
0.167929
0.167823
0.167891
0.168394
0.168973
0.169342
0.169897
0.170601
0.17275
0.176731
0.180259
0.176058
0.173716
0.173389
0.172621
0.172205
0.172033
0.171619
0.171776
0.171676
0.171796
0.171678
0.171649
0.17207
0.172641
0.173126
0.173632
0.174141
0.176228
0.180588
0.189651
0.188189
0.186841
0.186168
0.185664
0.185469
0.185277
0.184969
0.184866
0.184861
0.18508
0.185103
0.185111
0.185317
0.185723
0.186327
0.186834
0.187359
0.188524
0.190399
0.199005
0.198436
0.197784
0.197301
0.196932
0.196687
0.196509
0.196366
0.196309
0.196315
0.196391
0.196471
0.196591
0.196806
0.197113
0.197499
0.197921
0.198413
0.199061
0.199705
0.207456
0.207205
0.206865
0.206555
0.2063
0.20611
0.205976
0.205891
0.205861
0.205878
0.205939
0.206032
0.206168
0.206359
0.206604
0.206895
0.207219
0.207575
0.207944
0.208222
0.215212
0.215089
0.214905
0.214715
0.214549
0.214421
0.214333
0.214285
0.214277
0.214306
0.21437
0.214465
0.214595
0.21476
0.214959
0.215186
0.215429
0.215676
0.215899
0.216043
0.222387
0.222324
0.222222
0.222112
0.222012
0.221934
0.221885
0.221867
0.221878
0.221919
0.221987
0.222081
0.222201
0.222344
0.222508
0.222686
0.222869
0.223043
0.223187
0.223272
0.229053
0.229021
0.228967
0.228907
0.228854
0.228816
0.228799
0.228804
0.228832
0.228883
0.228956
0.229047
0.229157
0.229282
0.229419
0.229561
0.229701
0.229828
0.229927
0.229982
0.235253
0.235238
0.235213
0.235187
0.235166
0.235158
0.235165
0.23519
0.235232
0.235291
0.235367
0.235456
0.235558
0.235669
0.235785
0.235902
0.236013
0.236109
0.236181
0.23622
0.241005
0.241
0.240994
0.24099
0.240993
0.241006
0.241032
0.241072
0.241125
0.241192
0.24127
0.241358
0.241454
0.241554
0.241656
0.241754
0.241844
0.24192
0.241976
0.242005
0.246309
0.246311
0.246317
0.246328
0.246347
0.246377
0.246417
0.246468
0.246531
0.246603
0.246684
0.246771
0.246863
0.246955
0.247046
0.247132
0.247208
0.247271
0.247316
0.247339
0.251152
0.251158
0.251172
0.251193
0.251224
0.251265
0.251317
0.251377
0.251447
0.251524
0.251607
0.251694
0.251782
0.251869
0.251953
0.252029
0.252097
0.252151
0.252189
0.252208
0.255507
0.255516
0.255535
0.255564
0.255604
0.255653
0.255713
0.255781
0.255856
0.255937
0.256022
0.256108
0.256194
0.256278
0.256356
0.256427
0.256487
0.256536
0.256569
0.256587
0.259341
0.259352
0.259375
0.25941
0.259455
0.259512
0.259577
0.259651
0.25973
0.259814
0.259901
0.259987
0.260072
0.260153
0.260227
0.260294
0.26035
0.260394
0.260425
0.260441
0.262617
0.26263
0.262655
0.262694
0.262744
0.262805
0.262875
0.262953
0.263036
0.263123
0.26321
0.263297
0.263381
0.26346
0.263532
0.263595
0.263648
0.26369
0.263719
0.263733
0.265297
0.265311
0.265338
0.26538
0.265433
0.265498
0.265572
0.265652
0.265738
0.265826
0.265915
0.266002
0.266085
0.266163
0.266233
0.266294
0.266345
0.266385
0.266412
0.266426
0.267345
0.26736
0.267389
0.267432
0.267488
0.267555
0.267631
0.267714
0.267802
0.267891
0.267981
0.268068
0.26815
0.268227
0.268296
0.268356
0.268405
0.268444
0.26847
0.268484
0.268731
0.268747
0.268777
0.268821
0.268878
0.268947
0.269024
0.269109
0.269197
0.269288
0.269377
0.269465
0.269547
0.269623
0.269691
0.26975
0.269799
0.269836
0.269862
0.269875
0.269432
0.269447
0.269478
0.269522
0.26958
0.26965
0.269728
0.269813
0.269902
0.269993
0.270083
0.27017
0.270252
0.270328
0.270396
0.270454
0.270502
0.27054
0.270565
0.270578
0.18211
0.180564
0.179144
0.178337
0.177705
0.177295
0.177019
0.176772
0.176705
0.176677
0.176738
0.176769
0.176872
0.177169
0.177615
0.178147
0.178757
0.179558
0.180916
0.182547
0.180605
0.17683
0.174519
0.174065
0.173341
0.173064
0.172901
0.17242
0.172474
0.1724
0.172655
0.172552
0.172459
0.172792
0.173351
0.173989
0.17451
0.17495
0.176914
0.18117
0.184393
0.180499
0.178314
0.178012
0.177316
0.176933
0.176777
0.176405
0.176559
0.176475
0.176585
0.17648
0.176463
0.176865
0.1774
0.177845
0.178306
0.178786
0.180749
0.184785
0.193435
0.191682
0.190564
0.190159
0.189645
0.189165
0.188954
0.188862
0.188967
0.18893
0.188821
0.188841
0.189026
0.1894
0.18978
0.189999
0.190437
0.191119
0.192321
0.193756
0.202131
0.201543
0.200961
0.200557
0.200213
0.199941
0.199772
0.19968
0.19967
0.199674
0.199698
0.199773
0.199924
0.200162
0.200448
0.200751
0.201131
0.201615
0.202231
0.202785
0.21015
0.209911
0.209604
0.20933
0.209098
0.208919
0.2088
0.208734
0.208719
0.20874
0.208794
0.208886
0.209025
0.209215
0.209446
0.209708
0.210007
0.21034
0.210682
0.210932
0.217589
0.217477
0.217311
0.217142
0.216994
0.216879
0.216803
0.216766
0.216767
0.2168
0.216865
0.21696
0.217089
0.21725
0.21744
0.217651
0.217878
0.218108
0.218315
0.218447
0.224542
0.224485
0.224395
0.224297
0.22421
0.224144
0.224104
0.224094
0.224112
0.224157
0.224227
0.224322
0.22444
0.22458
0.224737
0.224906
0.225079
0.225242
0.225376
0.225455
0.231065
0.231037
0.23099
0.230939
0.230895
0.230866
0.230856
0.230868
0.230902
0.230957
0.231031
0.231124
0.231233
0.231356
0.231488
0.231625
0.231759
0.231879
0.231972
0.232025
0.237186
0.237173
0.237153
0.237133
0.23712
0.237118
0.237132
0.237162
0.237209
0.237272
0.23735
0.237441
0.237543
0.237653
0.237767
0.237881
0.237987
0.238079
0.238148
0.238185
0.242908
0.242905
0.242902
0.242903
0.242912
0.242931
0.242962
0.243007
0.243065
0.243135
0.243216
0.243306
0.243403
0.243503
0.243603
0.2437
0.243788
0.243861
0.243915
0.243943
0.248219
0.248223
0.248231
0.248247
0.248271
0.248305
0.248351
0.248407
0.248474
0.248551
0.248634
0.248724
0.248816
0.248909
0.249
0.249085
0.24916
0.249221
0.249265
0.249288
0.253096
0.253103
0.25312
0.253145
0.253181
0.253227
0.253283
0.253349
0.253423
0.253504
0.25359
0.253679
0.253769
0.253857
0.253941
0.254018
0.254084
0.254137
0.254175
0.254194
0.257502
0.257512
0.257534
0.257567
0.257611
0.257666
0.25773
0.257803
0.257884
0.257969
0.258057
0.258146
0.258235
0.258319
0.258398
0.258469
0.258529
0.258577
0.25861
0.258627
0.261397
0.261409
0.261435
0.261473
0.261524
0.261585
0.261656
0.261735
0.26182
0.261909
0.261999
0.262088
0.262175
0.262257
0.262333
0.262399
0.262455
0.262499
0.26253
0.262545
0.264736
0.26475
0.264779
0.264821
0.264877
0.264943
0.265019
0.265102
0.265191
0.265282
0.265374
0.265464
0.26555
0.26563
0.265703
0.265767
0.26582
0.265861
0.26589
0.265904
0.267475
0.267491
0.267522
0.267567
0.267626
0.267696
0.267776
0.267863
0.267954
0.268047
0.26814
0.26823
0.268316
0.268395
0.268466
0.268528
0.268579
0.268618
0.268645
0.268659
0.269574
0.26959
0.269622
0.26967
0.269731
0.269804
0.269886
0.269976
0.270069
0.270164
0.270257
0.270348
0.270433
0.270511
0.270581
0.270641
0.270691
0.270729
0.270755
0.270769
0.270996
0.271013
0.271046
0.271095
0.271158
0.271232
0.271316
0.271407
0.271501
0.271597
0.271691
0.271782
0.271867
0.271945
0.272014
0.272073
0.272122
0.272159
0.272184
0.272198
0.271715
0.271732
0.271766
0.271815
0.271879
0.271954
0.272039
0.272131
0.272226
0.272322
0.272416
0.272507
0.272592
0.272669
0.272738
0.272797
0.272845
0.272882
0.272907
0.27292
0.189771
0.188917
0.187982
0.187314
0.186807
0.186456
0.186213
0.186034
0.185963
0.185951
0.185999
0.186067
0.186202
0.186461
0.186831
0.187283
0.187818
0.1885
0.189427
0.190319
0.190284
0.188931
0.187752
0.187131
0.186626
0.186304
0.186088
0.18588
0.185837
0.185825
0.1859
0.185938
0.186033
0.186299
0.18669
0.187146
0.187647
0.188279
0.189409
0.190854
0.193248
0.191489
0.190242
0.189779
0.189283
0.188964
0.188783
0.188576
0.1886
0.188576
0.18864
0.188652
0.188737
0.18903
0.189421
0.189815
0.190259
0.190803
0.191986
0.193804
0.199857
0.199019
0.198269
0.197824
0.19744
0.197142
0.196964
0.19686
0.19686
0.196859
0.196877
0.196938
0.197085
0.197342
0.19765
0.197966
0.198366
0.198899
0.199672
0.200471
0.207047
0.206673
0.206247
0.20591
0.20563
0.205415
0.205275
0.205201
0.205188
0.205203
0.205247
0.205333
0.205477
0.205686
0.205939
0.206221
0.206556
0.206957
0.207416
0.207787
0.214178
0.214002
0.213764
0.21354
0.213349
0.213202
0.213105
0.213056
0.213051
0.21308
0.213139
0.213234
0.213369
0.213546
0.213757
0.213994
0.214258
0.214543
0.21482
0.21501
0.221072
0.220984
0.220851
0.220713
0.220592
0.220499
0.220441
0.220417
0.220428
0.220468
0.220536
0.220633
0.220758
0.220911
0.221087
0.221281
0.221485
0.221687
0.221863
0.221972
0.227687
0.227642
0.227569
0.227491
0.227422
0.227371
0.227346
0.227346
0.227373
0.227424
0.227497
0.227593
0.227709
0.227843
0.227992
0.228149
0.228307
0.228454
0.228573
0.228642
0.23401
0.233988
0.233952
0.233914
0.233882
0.233865
0.233866
0.233887
0.233929
0.233989
0.234067
0.234161
0.234269
0.234389
0.234516
0.234645
0.23477
0.234881
0.234965
0.235012
0.240029
0.24002
0.240007
0.239996
0.239992
0.24
0.240023
0.240061
0.240115
0.240184
0.240265
0.240358
0.240461
0.240569
0.24068
0.240788
0.24089
0.240976
0.24104
0.241074
0.245721
0.245721
0.245724
0.245731
0.245748
0.245775
0.245815
0.245867
0.245932
0.246007
0.246092
0.246185
0.246282
0.246382
0.246481
0.246575
0.24666
0.24673
0.246781
0.246807
0.251056
0.251062
0.251075
0.251096
0.251127
0.251169
0.251223
0.251287
0.25136
0.251442
0.25153
0.251622
0.251717
0.25181
0.251901
0.251984
0.252057
0.252117
0.252159
0.252181
0.255994
0.256004
0.256024
0.256056
0.256098
0.256151
0.256215
0.256289
0.25637
0.256457
0.256548
0.25664
0.256733
0.256822
0.256906
0.256982
0.257047
0.257099
0.257135
0.257154
0.260487
0.2605
0.260526
0.260564
0.260615
0.260678
0.26075
0.260831
0.260919
0.26101
0.261104
0.261197
0.261288
0.261374
0.261453
0.261524
0.261583
0.26163
0.261663
0.26168
0.264483
0.264497
0.264527
0.264572
0.264629
0.264699
0.264778
0.264865
0.264958
0.265053
0.265149
0.265243
0.265333
0.265417
0.265493
0.265559
0.265615
0.265658
0.265688
0.265703
0.267925
0.267942
0.267975
0.268023
0.268086
0.268161
0.268246
0.268338
0.268435
0.268533
0.268631
0.268725
0.268815
0.268897
0.268971
0.269035
0.269087
0.269128
0.269156
0.26917
0.27076
0.270778
0.270814
0.270866
0.270932
0.271012
0.271101
0.271197
0.271297
0.271397
0.271497
0.271592
0.271681
0.271762
0.271834
0.271895
0.271946
0.271985
0.272011
0.272025
0.272939
0.272958
0.272995
0.273049
0.273119
0.273201
0.273294
0.273392
0.273494
0.273597
0.273697
0.273793
0.273881
0.273962
0.274032
0.274093
0.274142
0.274179
0.274204
0.274217
0.274419
0.274438
0.274477
0.274533
0.274604
0.274688
0.274782
0.274883
0.274987
0.27509
0.275191
0.275287
0.275375
0.275455
0.275525
0.275584
0.275632
0.275669
0.275693
0.275706
0.275169
0.275188
0.275227
0.275284
0.275356
0.275441
0.275536
0.275638
0.275742
0.275846
0.275947
0.276043
0.276132
0.276211
0.27628
0.276339
0.276386
0.276422
0.276447
0.276459
0.198235
0.197801
0.197247
0.196773
0.196396
0.196119
0.195926
0.195798
0.195743
0.195743
0.195792
0.19588
0.196025
0.19625
0.196553
0.19692
0.197351
0.19786
0.198433
0.198888
0.19935
0.198813
0.198204
0.19774
0.197374
0.197111
0.196929
0.196804
0.196759
0.196762
0.196815
0.196897
0.197033
0.197257
0.197558
0.197917
0.198332
0.19883
0.199453
0.200019
0.202212
0.201627
0.201029
0.200618
0.200282
0.200038
0.199877
0.199766
0.199741
0.199748
0.1998
0.199877
0.20001
0.200232
0.20052
0.200849
0.201229
0.201689
0.202301
0.202908
0.207085
0.206711
0.206283
0.205944
0.205667
0.205458
0.20532
0.205242
0.205226
0.205242
0.205291
0.205377
0.205518
0.205723
0.205977
0.206264
0.206598
0.206995
0.207454
0.207835
0.212926
0.212718
0.212444
0.212197
0.211989
0.21183
0.211725
0.211672
0.211665
0.211692
0.21175
0.211843
0.21198
0.212163
0.212382
0.212629
0.212908
0.213216
0.213527
0.21375
0.21914
0.219027
0.218861
0.218696
0.218552
0.218443
0.218373
0.218343
0.21835
0.218387
0.218454
0.218551
0.21868
0.218841
0.219029
0.219237
0.219461
0.219691
0.219898
0.220031
0.225437
0.225376
0.225279
0.225178
0.225088
0.225022
0.224984
0.224977
0.224999
0.225047
0.22512
0.225217
0.225338
0.225481
0.225642
0.225815
0.225992
0.226162
0.226304
0.226388
0.231679
0.231647
0.231595
0.231539
0.231491
0.23146
0.231451
0.231465
0.231501
0.23156
0.231637
0.231734
0.231848
0.231976
0.232114
0.232257
0.232398
0.232526
0.232627
0.232684
0.237788
0.237773
0.23775
0.237727
0.237711
0.237708
0.237723
0.237755
0.237806
0.237873
0.237955
0.238051
0.238158
0.238274
0.238395
0.238515
0.238629
0.238728
0.238804
0.238845
0.24371
0.243706
0.243702
0.243701
0.24371
0.24373
0.243764
0.243812
0.243875
0.24395
0.244036
0.244132
0.244234
0.244341
0.244448
0.244551
0.244645
0.244725
0.244784
0.244815
0.249393
0.249396
0.249405
0.249422
0.249448
0.249486
0.249536
0.249598
0.249671
0.249754
0.249844
0.24994
0.250039
0.250138
0.250235
0.250326
0.250406
0.250472
0.25052
0.250545
0.254784
0.254793
0.254811
0.254841
0.254881
0.254933
0.254996
0.25507
0.255152
0.255241
0.255335
0.255431
0.255528
0.255622
0.255711
0.255793
0.255864
0.255921
0.255961
0.255981
0.259825
0.259838
0.259864
0.259902
0.259954
0.260018
0.260092
0.260175
0.260265
0.26036
0.260457
0.260554
0.26065
0.26074
0.260824
0.260899
0.260962
0.261013
0.261048
0.261066
0.264453
0.264468
0.2645
0.264546
0.264606
0.264679
0.264763
0.264854
0.264951
0.265051
0.265151
0.26525
0.265344
0.265432
0.265512
0.265582
0.26564
0.265685
0.265717
0.265733
0.268598
0.268616
0.268652
0.268705
0.268772
0.268853
0.268944
0.269042
0.269145
0.26925
0.269353
0.269452
0.269546
0.269632
0.269708
0.269774
0.269829
0.269871
0.2699
0.269914
0.272193
0.272213
0.272252
0.27231
0.272383
0.27247
0.272568
0.272672
0.272779
0.272887
0.272993
0.273093
0.273187
0.273271
0.273345
0.273409
0.27346
0.273499
0.273526
0.273539
0.275169
0.27519
0.275233
0.275294
0.275372
0.275464
0.275567
0.275675
0.275787
0.275898
0.276005
0.276106
0.2762
0.276283
0.276355
0.276416
0.276465
0.276502
0.276527
0.27654
0.277465
0.277488
0.277532
0.277596
0.277678
0.277774
0.27788
0.277992
0.278106
0.278219
0.278328
0.27843
0.278523
0.278605
0.278677
0.278736
0.278783
0.278819
0.278842
0.278855
0.27903
0.279053
0.279099
0.279165
0.279249
0.279347
0.279455
0.27957
0.279686
0.2798
0.27991
0.280012
0.280105
0.280187
0.280257
0.280315
0.280361
0.280396
0.280419
0.28043
0.279823
0.279847
0.279893
0.27996
0.280046
0.280145
0.280255
0.28037
0.280487
0.280602
0.280712
0.280815
0.280907
0.280989
0.281058
0.281116
0.281161
0.281195
0.281218
0.281229
0.206492
0.20627
0.205951
0.205642
0.20538
0.205179
0.205038
0.204951
0.204918
0.204932
0.204987
0.205082
0.205223
0.205417
0.205664
0.205955
0.206285
0.206642
0.206992
0.207233
0.207696
0.207456
0.20713
0.206829
0.206578
0.206387
0.206254
0.206173
0.206145
0.206162
0.206219
0.206312
0.20645
0.206642
0.206884
0.207167
0.207486
0.207837
0.208194
0.208453
0.210281
0.210045
0.209739
0.209467
0.20924
0.209067
0.20895
0.208881
0.208864
0.208886
0.208944
0.209037
0.209172
0.209358
0.209589
0.209854
0.21015
0.210476
0.210815
0.211071
0.214249
0.214074
0.213836
0.213612
0.213424
0.21328
0.213184
0.213134
0.213128
0.213157
0.213218
0.213313
0.213447
0.213622
0.213832
0.21407
0.214333
0.214615
0.214892
0.215085
0.21917
0.219056
0.218891
0.218726
0.218584
0.218475
0.218406
0.218375
0.218382
0.218419
0.218486
0.218583
0.218712
0.218873
0.219061
0.219269
0.219492
0.219721
0.219928
0.220062
0.224653
0.224585
0.224479
0.224368
0.224271
0.224199
0.224157
0.224147
0.224167
0.224214
0.224286
0.224384
0.224507
0.224653
0.224818
0.224997
0.225181
0.22536
0.225512
0.225603
0.230435
0.230396
0.230334
0.230267
0.230209
0.230171
0.230155
0.230165
0.230199
0.230256
0.230334
0.230432
0.230548
0.230681
0.230826
0.230977
0.231128
0.231267
0.231379
0.231443
0.236348
0.236328
0.236296
0.236263
0.236238
0.236228
0.236237
0.236265
0.236313
0.236379
0.236462
0.23656
0.236671
0.236792
0.236919
0.237048
0.237172
0.237282
0.237366
0.237412
0.242278
0.242271
0.242261
0.242253
0.242254
0.242268
0.242298
0.242343
0.242404
0.242479
0.242566
0.242664
0.242771
0.242882
0.242996
0.243107
0.24321
0.243298
0.243363
0.243398
0.24814
0.248142
0.248147
0.248159
0.24818
0.248214
0.248261
0.248322
0.248394
0.248477
0.248569
0.248668
0.248771
0.248876
0.248979
0.249076
0.249163
0.249236
0.249289
0.249316
0.253858
0.253865
0.253882
0.253909
0.253947
0.253998
0.25406
0.254134
0.254217
0.254308
0.254404
0.254504
0.254605
0.254704
0.254798
0.254885
0.254961
0.255023
0.255067
0.25509
0.259356
0.259369
0.259394
0.259433
0.259485
0.259549
0.259625
0.25971
0.259803
0.259901
0.260002
0.260103
0.260202
0.260297
0.260386
0.260465
0.260532
0.260586
0.260624
0.260643
0.264558
0.264575
0.264607
0.264656