# vtk DataFile Version 2.0
Pressure 3D1D coupled problem
ASCII
DATASET UNSTRUCTURED_GRID
POINTS 9261 float
0 0 0
0 0 0.1
0 0 0.2
0 0 0.3
0 0 0.4
0 0 0.5
0 0 0.6
0 0 0.7
0 0 0.8
0 0 0.9
0 0 1
0 0 1.1
0 0 1.2
0 0 1.3
0 0 1.4
0 0 1.5
0 0 1.6
0 0 1.7
0 0 1.8
0 0 1.9
0 0 2
0 0.1 0
0 0.1 0.1
0 0.1 0.2
0 0.1 0.3
0 0.1 0.4
0 0.1 0.5
0 0.1 0.6
0 0.1 0.7
0 0.1 0.8
0 0.1 0.9
0 0.1 1
0 0.1 1.1
0 0.1 1.2
0 0.1 1.3
0 0.1 1.4
0 0.1 1.5
0 0.1 1.6
0 0.1 1.7
0 0.1 1.8
0 0.1 1.9
0 0.1 2
0 0.2 0
0 0.2 0.1
0 0.2 0.2
0 0.2 0.3
0 0.2 0.4
0 0.2 0.5
0 0.2 0.6
0 0.2 0.7
0 0.2 0.8
0 0.2 0.9
0 0.2 1
0 0.2 1.1
0 0.2 1.2
0 0.2 1.3
0 0.2 1.4
0 0.2 1.5
0 0.2 1.6
0 0.2 1.7
0 0.2 1.8
0 0.2 1.9
0 0.2 2
0 0.3 0
0 0.3 0.1
0 0.3 0.2
0 0.3 0.3
0 0.3 0.4
0 0.3 0.5
0 0.3 0.6
0 0.3 0.7
0 0.3 0.8
0 0.3 0.9
0 0.3 1
0 0.3 1.1
0 0.3 1.2
0 0.3 1.3
0 0.3 1.4
0 0.3 1.5
0 0.3 1.6
0 0.3 1.7
0 0.3 1.8
0 0.3 1.9
0 0.3 2
0 0.4 0
0 0.4 0.1
0 0.4 0.2
0 0.4 0.3
0 0.4 0.4
0 0.4 0.5
0 0.4 0.6
0 0.4 0.7
0 0.4 0.8
0 0.4 0.9
0 0.4 1
0 0.4 1.1
0 0.4 1.2
0 0.4 1.3
0 0.4 1.4
0 0.4 1.5
0 0.4 1.6
0 0.4 1.7
0 0.4 1.8
0 0.4 1.9
0 0.4 2
0 0.5 0
0 0.5 0.1
0 0.5 0.2
0 0.5 0.3
0 0.5 0.4
0 0.5 0.5
0 0.5 0.6
0 0.5 0.7
0 0.5 0.8
0 0.5 0.9
0 0.5 1
0 0.5 1.1
0 0.5 1.2
0 0.5 1.3
0 0.5 1.4
0 0.5 1.5
0 0.5 1.6
0 0.5 1.7
0 0.5 1.8
0 0.5 1.9
0 0.5 2
0 0.6 0
0 0.6 0.1
0 0.6 0.2
0 0.6 0.3
0 0.6 0.4
0 0.6 0.5
0 0.6 0.6
0 0.6 0.7
0 0.6 0.8
0 0.6 0.9
0 0.6 1
0 0.6 1.1
0 0.6 1.2
0 0.6 1.3
0 0.6 1.4
0 0.6 1.5
0 0.6 1.6
0 0.6 1.7
0 0.6 1.8
0 0.6 1.9
0 0.6 2
0 0.7 0
0 0.7 0.1
0 0.7 0.2
0 0.7 0.3
0 0.7 0.4
0 0.7 0.5
0 0.7 0.6
0 0.7 0.7
0 0.7 0.8
0 0.7 0.9
0 0.7 1
0 0.7 1.1
0 0.7 1.2
0 0.7 1.3
0 0.7 1.4
0 0.7 1.5
0 0.7 1.6
0 0.7 1.7
0 0.7 1.8
0 0.7 1.9
0 0.7 2
0 0.8 0
0 0.8 0.1
0 0.8 0.2
0 0.8 0.3
0 0.8 0.4
0 0.8 0.5
0 0.8 0.6
0 0.8 0.7
0 0.8 0.8
0 0.8 0.9
0 0.8 1
0 0.8 1.1
0 0.8 1.2
0 0.8 1.3
0 0.8 1.4
0 0.8 1.5
0 0.8 1.6
0 0.8 1.7
0 0.8 1.8
0 0.8 1.9
0 0.8 2
0 0.9 0
0 0.9 0.1
0 0.9 0.2
0 0.9 0.3
0 0.9 0.4
0 0.9 0.5
0 0.9 0.6
0 0.9 0.7
0 0.9 0.8
0 0.9 0.9
0 0.9 1
0 0.9 1.1
0 0.9 1.2
0 0.9 1.3
0 0.9 1.4
0 0.9 1.5
0 0.9 1.6
0 0.9 1.7
0 0.9 1.8
0 0.9 1.9
0 0.9 2
0 1 0
0 1 0.1
0 1 0.2
0 1 0.3
0 1 0.4
0 1 0.5
0 1 0.6
0 1 0.7
0 1 0.8
0 1 0.9
0 1 1
0 1 1.1
0 1 1.2
0 1 1.3
0 1 1.4
0 1 1.5
0 1 1.6
0 1 1.7
0 1 1.8
0 1 1.9
0 1 2
0 1.1 0
0 1.1 0.1
0 1.1 0.2
0 1.1 0.3
0 1.1 0.4
0 1.1 0.5
0 1.1 0.6
0 1.1 0.7
0 1.1 0.8
0 1.1 0.9
0 1.1 1
0 1.1 1.1
0 1.1 1.2
0 1.1 1.3
0 1.1 1.4
0 1.1 1.5
0 1.1 1.6
0 1.1 1.7
0 1.1 1.8
0 1.1 1.9
0 1.1 2
0 1.2 0
0 1.2 0.1
0 1.2 0.2
0 1.2 0.3
0 1.2 0.4
0 1.2 0.5
0 1.2 0.6
0 1.2 0.7
0 1.2 0.8
0 1.2 0.9
0 1.2 1
0 1.2 1.1
0 1.2 1.2
0 1.2 1.3
0 1.2 1.4
0 1.2 1.5
0 1.2 1.6
0 1.2 1.7
0 1.2 1.8
0 1.2 1.9
0 1.2 2
0 1.3 0
0 1.3 0.1
0 1.3 0.2
0 1.3 0.3
0 1.3 0.4
0 1.3 0.5
0 1.3 0.6
0 1.3 0.7
0 1.3 0.8
0 1.3 0.9
0 1.3 1
0 1.3 1.1
0 1.3 1.2
0 1.3 1.3
0 1.3 1.4
0 1.3 1.5
0 1.3 1.6
0 1.3 1.7
0 1.3 1.8
0 1.3 1.9
0 1.3 2
0 1.4 0
0 1.4 0.1
0 1.4 0.2
0 1.4 0.3
0 1.4 0.4
0 1.4 0.5
0 1.4 0.6
0 1.4 0.7
0 1.4 0.8
0 1.4 0.9
0 1.4 1
0 1.4 1.1
0 1.4 1.2
0 1.4 1.3
0 1.4 1.4
0 1.4 1.5
0 1.4 1.6
0 1.4 1.7
0 1.4 1.8
0 1.4 1.9
0 1.4 2
0 1.5 0
0 1.5 0.1
0 1.5 0.2
0 1.5 0.3
0 1.5 0.4
0 1.5 0.5
0 1.5 0.6
0 1.5 0.7
0 1.5 0.8
0 1.5 0.9
0 1.5 1
0 1.5 1.1
0 1.5 1.2
0 1.5 1.3
0 1.5 1.4
0 1.5 1.5
0 1.5 1.6
0 1.5 1.7
0 1.5 1.8
0 1.5 1.9
0 1.5 2
0 1.6 0
0 1.6 0.1
0 1.6 0.2
0 1.6 0.3
0 1.6 0.4
0 1.6 0.5
0 1.6 0.6
0 1.6 0.7
0 1.6 0.8
0 1.6 0.9
0 1.6 1
0 1.6 1.1
0 1.6 1.2
0 1.6 1.3
0 1.6 1.4
0 1.6 1.5
0 1.6 1.6
0 1.6 1.7
0 1.6 1.8
0 1.6 1.9
0 1.6 2
0 1.7 0
0 1.7 0.1
0 1.7 0.2
0 1.7 0.3
0 1.7 0.4
0 1.7 0.5
0 1.7 0.6
0 1.7 0.7
0 1.7 0.8
0 1.7 0.9
0 1.7 1
0 1.7 1.1
0 1.7 1.2
0 1.7 1.3
0 1.7 1.4
0 1.7 1.5
0 1.7 1.6
0 1.7 1.7
0 1.7 1.8
0 1.7 1.9
0 1.7 2
0 1.8 0
0 1.8 0.1
0 1.8 0.2
0 1.8 0.3
0 1.8 0.4
0 1.8 0.5
0 1.8 0.6
0 1.8 0.7
0 1.8 0.8
0 1.8 0.9
0 1.8 1
0 1.8 1.1
0 1.8 1.2
0 1.8 1.3
0 1.8 1.4
0 1.8 1.5
0 1.8 1.6
0 1.8 1.7
0 1.8 1.8
0 1.8 1.9
0 1.8 2
0 1.9 0
0 1.9 0.1
0 1.9 0.2
0 1.9 0.3
0 1.9 0.4
0 1.9 0.5
0 1.9 0.6
0 1.9 0.7
0 1.9 0.8
0 1.9 0.9
0 1.9 1
0 1.9 1.1
0 1.9 1.2
0 1.9 1.3
0 1.9 1.4
0 1.9 1.5
0 1.9 1.6
0 1.9 1.7
0 1.9 1.8
0 1.9 1.9
0 1.9 2
0 2 0
0 2 0.1
0 2 0.2
0 2 0.3
0 2 0.4
0 2 0.5
0 2 0.6
0 2 0.7
0 2 0.8
0 2 0.9
0 2 1
0 2 1.1
0 2 1.2
0 2 1.3
0 2 1.4
0 2 1.5
0 2 1.6
0 2 1.7
0 2 1.8
0 2 1.9
0 2 2
0.1 0 0
0.1 0 0.1
0.1 0 0.2
0.1 0 0.3
0.1 0 0.4
0.1 0 0.5
0.1 0 0.6
0.1 0 0.7
0.1 0 0.8
0.1 0 0.9
0.1 0 1
0.1 0 1.1
0.1 0 1.2
0.1 0 1.3
0.1 0 1.4
0.1 0 1.5
0.1 0 1.6
0.1 0 1.7
0.1 0 1.8
0.1 0 1.9
0.1 0 2
0.1 0.1 0
0.1 0.1 0.1
0.1 0.1 0.2
0.1 0.1 0.3
0.1 0.1 0.4
0.1 0.1 0.5
0.1 0.1 0.6
0.1 0.1 0.7
0.1 0.1 0.8
0.1 0.1 0.9
0.1 0.1 1
0.1 0.1 1.1
0.1 0.1 1.2
0.1 0.1 1.3
0.1 0.1 1.4
0.1 0.1 1.5
0.1 0.1 1.6
0.1 0.1 1.7
0.1 0.1 1.8
0.1 0.1 1.9
0.1 0.1 2
0.1 0.2 0
0.1 0.2 0.1
0.1 0.2 0.2
0.1 0.2 0.3
0.1 0.2 0.4
0.1 0.2 0.5
0.1 0.2 0.6
0.1 0.2 0.7
0.1 0.2 0.8
0.1 0.2 0.9
0.1 0.2 1
0.1 0.2 1.1
0.1 0.2 1.2
0.1 0.2 1.3
0.1 0.2 1.4
0.1 0.2 1.5
0.1 0.2 1.6
0.1 0.2 1.7
0.1 0.2 1.8
0.1 0.2 1.9
0.1 0.2 2
0.1 0.3 0
0.1 0.3 0.1
0.1 0.3 0.2
0.1 0.3 0.3
0.1 0.3 0.4
0.1 0.3 0.5
0.1 0.3 0.6
0.1 0.3 0.7
0.1 0.3 0.8
0.1 0.3 0.9
0.1 0.3 1
0.1 0.3 1.1
0.1 0.3 1.2
0.1 0.3 1.3
0.1 0.3 1.4
0.1 0.3 1.5
0.1 0.3 1.6
0.1 0.3 1.7
0.1 0.3 1.8
0.1 0.3 1.9
0.1 0.3 2
0.1 0.4 0
0.1 0.4 0.1
0.1 0.4 0.2
0.1 0.4 0.3
0.1 0.4 0.4
0.1 0.4 0.5
0.1 0.4 0.6
0.1 0.4 0.7
0.1 0.4 0.8
0.1 0.4 0.9
0.1 0.4 1
0.1 0.4 1.1
0.1 0.4 1.2
0.1 0.4 1.3
0.1 0.4 1.4
0.1 0.4 1.5
0.1 0.4 1.6
0.1 0.4 1.7
0.1 0.4 1.8
0.1 0.4 1.9
0.1 0.4 2
0.1 0.5 0
0.1 0.5 0.1
0.1 0.5 0.2
0.1 0.5 0.3
0.1 0.5 0.4
0.1 0.5 0.5
0.1 0.5 0.6
0.1 0.5 0.7
0.1 0.5 0.8
0.1 0.5 0.9
0.1 0.5 1
0.1 0.5 1.1
0.1 0.5 1.2
0.1 0.5 1.3
0.1 0.5 1.4
0.1 0.5 1.5
0.1 0.5 1.6
0.1 0.5 1.7
0.1 0.5 1.8
0.1 0.5 1.9
0.1 0.5 2
0.1 0.6 0
0.1 0.6 0.1
0.1 0.6 0.2
0.1 0.6 0.3
0.1 0.6 0.4
0.1 0.6 0.5
0.1 0.6 0.6
0.1 0.6 0.7
0.1 0.6 0.8
0.1 0.6 0.9
0.1 0.6 1
0.1 0.6 1.1
0.1 0.6 1.2
0.1 0.6 1.3
0.1 0.6 1.4
0.1 0.6 1.5
0.1 0.6 1.6
0.1 0.6 1.7
0.1 0.6 1.8
0.1 0.6 1.9
0.1 0.6 2
0.1 0.7 0
0.1 0.7 0.1
0.1 0.7 0.2
0.1 0.7 0.3
0.1 0.7 0.4
0.1 0.7 0.5
0.1 0.7 0.6
0.1 0.7 0.7
0.1 0.7 0.8
0.1 0.7 0.9
0.1 0.7 1
0.1 0.7 1.1
0.1 0.7 1.2
0.1 0.7 1.3
0.1 0.7 1.4
0.1 0.7 1.5
0.1 0.7 1.6
0.1 0.7 1.7
0.1 0.7 1.8
0.1 0.7 1.9
0.1 0.7 2
0.1 0.8 0
0.1 0.8 0.1
0.1 0.8 0.2
0.1 0.8 0.3
0.1 0.8 0.4
0.1 0.8 0.5
0.1 0.8 0.6
0.1 0.8 0.7
0.1 0.8 0.8
0.1 0.8 0.9
0.1 0.8 1
0.1 0.8 1.1
0.1 0.8 1.2
0.1 0.8 1.3
0.1 0.8 1.4
0.1 0.8 1.5
0.1 0.8 1.6
0.1 0.8 1.7
0.1 0.8 1.8
0.1 0.8 1.9
0.1 0.8 2
0.1 0.9 0
0.1 0.9 0.1
0.1 0.9 0.2
0.1 0.9 0.3
0.1 0.9 0.4
0.1 0.9 0.5
0.1 0.9 0.6
0.1 0.9 0.7
0.1 0.9 0.8
0.1 0.9 0.9
0.1 0.9 1
0.1 0.9 1.1
0.1 0.9 1.2
0.1 0.9 1.3
0.1 0.9 1.4
0.1 0.9 1.5
0.1 0.9 1.6
0.1 0.9 1.7
0.1 0.9 1.8
0.1 0.9 1.9
0.1 0.9 2
0.1 1 0
0.1 1 0.1
0.1 1 0.2
0.1 1 0.3
0.1 1 0.4
0.1 1 0.5
0.1 1 0.6
0.1 1 0.7
0.1 1 0.8
0.1 1 0.9
0.1 1 1
0.1 1 1.1
0.1 1 1.2
0.1 1 1.3
0.1 1 1.4
0.1 1 1.5
0.1 1 1.6
0.1 1 1.7
0.1 1 1.8
0.1 1 1.9
0.1 1 2
0.1 1.1 0
0.1 1.1 0.1
0.1 1.1 0.2
0.1 1.1 0.3
0.1 1.1 0.4
0.1 1.1 0.5
0.1 1.1 0.6
0.1 1.1 0.7
0.1 1.1 0.8
0.1 1.1 0.9
0.1 1.1 1
0.1 1.1 1.1
0.1 1.1 1.2
0.1 1.1 1.3
0.1 1.1 1.4
0.1 1.1 1.5
0.1 1.1 1.6
0.1 1.1 1.7
0.1 1.1 1.8
0.1 1.1 1.9
0.1 1.1 2
0.1 1.2 0
0.1 1.2 0.1
0.1 1.2 0.2
0.1 1.2 0.3
0.1 1.2 0.4
0.1 1.2 0.5
0.1 1.2 0.6
0.1 1.2 0.7
0.1 1.2 0.8
0.1 1.2 0.9
0.1 1.2 1
0.1 1.2 1.1
0.1 1.2 1.2
0.1 1.2 1.3
0.1 1.2 1.4
0.1 1.2 1.5
0.1 1.2 1.6
0.1 1.2 1.7
0.1 1.2 1.8
0.1 1.2 1.9
0.1 1.2 2
0.1 1.3 0
0.1 1.3 0.1
0.1 1.3 0.2
0.1 1.3 0.3
0.1 1.3 0.4
0.1 1.3 0.5
0.1 1.3 0.6
0.1 1.3 0.7
0.1 1.3 0.8
0.1 1.3 0.9
0.1 1.3 1
0.1 1.3 1.1
0.1 1.3 1.2
0.1 1.3 1.3
0.1 1.3 1.4
0.1 1.3 1.5
0.1 1.3 1.6
0.1 1.3 1.7
0.1 1.3 1.8
0.1 1.3 1.9
0.1 1.3 2
0.1 1.4 0
0.1 1.4 0.1
0.1 1.4 0.2
0.1 1.4 0.3
0.1 1.4 0.4
0.1 1.4 0.5
0.1 1.4 0.6
0.1 1.4 0.7
0.1 1.4 0.8
0.1 1.4 0.9
0.1 1.4 1
0.1 1.4 1.1
0.1 1.4 1.2
0.1 1.4 1.3
0.1 1.4 1.4
0.1 1.4 1.5
0.1 1.4 1.6
0.1 1.4 1.7
0.1 1.4 1.8
0.1 1.4 1.9
0.1 1.4 2
0.1 1.5 0
0.1 1.5 0.1
0.1 1.5 0.2
0.1 1.5 0.3
0.1 1.5 0.4
0.1 1.5 0.5
0.1 1.5 0.6
0.1 1.5 0.7
0.1 1.5 0.8
0.1 1.5 0.9
0.1 1.5 1
0.1 1.5 1.1
0.1 1.5 1.2
0.1 1.5 1.3
0.1 1.5 1.4
0.1 1.5 1.5
0.1 1.5 1.6
0.1 1.5 1.7
0.1 1.5 1.8
0.1 1.5 1.9
0.1 1.5 2
0.1 1.6 0
0.1 1.6 0.1
0.1 1.6 0.2
0.1 1.6 0.3
0.1 1.6 0.4
0.1 1.6 0.5
0.1 1.6 0.6
0.1 1.6 0.7
0.1 1.6 0.8
0.1 1.6 0.9
0.1 1.6 1
0.1 1.6 1.1
0.1 1.6 1.2
0.1 1.6 1.3
0.1 1.6 1.4
0.1 1.6 1.5
0.1 1.6 1.6
0.1 1.6 1.7
0.1 1.6 1.8
0.1 1.6 1.9
0.1 1.6 2
0.1 1.7 0
0.1 1.7 0.1
0.1 1.7 0.2
0.1 1.7 0.3
0.1 1.7 0.4
0.1 1.7 0.5
0.1 1.7 0.6
0.1 1.7 0.7
0.1 1.7 0.8
0.1 1.7 0.9
0.1 1.7 1
0.1 1.7 1.1
0.1 1.7 1.2
0.1 1.7 1.3
0.1 1.7 1.4
0.1 1.7 1.5
0.1 1.7 1.6
0.1 1.7 1.7
0.1 1.7 1.8
0.1 1.7 1.9
0.1 1.7 2
0.1 1.8 0
0.1 1.8 0.1
0.1 1.8 0.2
0.1 1.8 0.3
0.1 1.8 0.4
0.1 1.8 0.5
0.1 1.8 0.6
0.1 1.8 0.7
0.1 1.8 0.8
0.1 1.8 0.9
0.1 1.8 1
0.1 1.8 1.1
0.1 1.8 1.2
0.1 1.8 1.3
0.1 1.8 1.4
0.1 1.8 1.5
0.1 1.8 1.6
0.1 1.8 1.7
0.1 1.8 1.8
0.1 1.8 1.9
0.1 1.8 2
0.1 1.9 0
0.1 1.9 0.1
0.1 1.9 0.2
0.1 1.9 0.3
0.1 1.9 0.4
0.1 1.9 0.5
0.1 1.9 0.6
0.1 1.9 0.7
0.1 1.9 0.8
0.1 1.9 0.9
0.1 1.9 1
0.1 1.9 1.1
0.1 1.9 1.2
0.1 1.9 1.3
0.1 1.9 1.4
0.1 1.9 1.5
0.1 1.9 1.6
0.1 1.9 1.7
0.1 1.9 1.8
0.1 1.9 1.9
0.1 1.9 2
0.1 2 0
0.1 2 0.1
0.1 2 0.2
0.1 2 0.3
0.1 2 0.4
0.1 2 0.5
0.1 2 0.6
0.1 2 0.7
0.1 2 0.8
0.1 2 0.9
0.1 2 1
0.1 2 1.1
0.1 2 1.2
0.1 2 1.3
0.1 2 1.4
0.1 2 1.5
0.1 2 1.6
0.1 2 1.7
0.1 2 1.8
0.1 2 1.9
0.1 2 2
0.2 0 0
0.2 0 0.1
0.2 0 0.2
0.2 0 0.3
0.2 0 0.4
0.2 0 0.5
0.2 0 0.6
0.2 0 0.7
0.2 0 0.8
0.2 0 0.9
0.2 0 1
0.2 0 1.1
0.2 0 1.2
0.2 0 1.3
0.2 0 1.4
0.2 0 1.5
0.2 0 1.6
0.2 0 1.7
0.2 0 1.8
0.2 0 1.9
0.2 0 2
0.2 0.1 0
0.2 0.1 0.1
0.2 0.1 0.2
0.2 0.1 0.3
0.2 0.1 0.4
0.2 0.1 0.5
0.2 0.1 0.6
0.2 0.1 0.7
0.2 0.1 0.8
0.2 0.1 0.9
0.2 0.1 1
0.2 0.1 1.1
0.2 0.1 1.2
0.2 0.1 1.3
0.2 0.1 1.4
0.2 0.1 1.5
0.2 0.1 1.6
0.2 0.1 1.7
0.2 0.1 1.8
0.2 0.1 1.9
0.2 0.1 2
0.2 0.2 0
0.2 0.2 0.1
0.2 0.2 0.2
0.2 0.2 0.3
0.2 0.2 0.4
0.2 0.2 0.5
0.2 0.2 0.6
0.2 0.2 0.7
0.2 0.2 0.8
0.2 0.2 0.9
0.2 0.2 1
0.2 0.2 1.1
0.2 0.2 1.2
0.2 0.2 1.3
0.2 0.2 1.4
0.2 0.2 1.5
0.2 0.2 1.6
0.2 0.2 1.7
0.2 0.2 1.8
0.2 0.2 1.9
[...]
CELL_DATA 8000
SCALARS Phi_sigma_(3D) float 1
LOOKUP_TABLE default
0.161448
0.160349
0.159141
0.15826
0.157577
0.15708
0.15675
0.156536
0.15645
0.156404
0.156402
0.15645
0.156606
0.156915
0.15734
0.157852
0.158514
0.159409
0.160596
0.161672
0.162142
0.160535
0.159103
0.158285
0.157606
0.157114
0.156809
0.156591
0.15655
0.156502
0.156494
0.156512
0.156647
0.156977
0.157417
0.157896
0.158516
0.159387
0.160783
0.162347
0.165908
0.164343
0.162962
0.162208
0.161596
0.161181
0.160915
0.160693
0.160647
0.160613
0.160645
0.160665
0.160771
0.161068
0.161488
0.161965
0.162537
0.163314
0.164645
0.166237
0.173083
0.172217
0.17127
0.170613
0.17013
0.169818
0.169592
0.169401
0.16932
0.16931
0.169379
0.169438
0.169544
0.169775
0.17013
0.170584
0.171095
0.171731
0.172648
0.1736
0.181245
0.180809
0.180253
0.179787
0.179426
0.179171
0.178988
0.178857
0.178797
0.178798
0.178852
0.178933
0.179059
0.179265
0.179554
0.179914
0.180327
0.180811
0.181377
0.181852
0.189229
0.189008
0.188692
0.188389
0.188138
0.187948
0.187813
0.187727
0.187692
0.187704
0.187757
0.187845
0.187974
0.188154
0.188388
0.188668
0.188984
0.189327
0.18967
0.189913
0.196734
0.196618
0.19644
0.196253
0.196088
0.19596
0.19587
0.195819
0.195806
0.19583
0.195887
0.195976
0.196097
0.196253
0.196443
0.196661
0.196896
0.197134
0.197347
0.197482
0.203723
0.203661
0.203562
0.203451
0.203351
0.203272
0.203221
0.203198
0.203205
0.20324
0.203302
0.203389
0.2035
0.203635
0.203791
0.203961
0.204136
0.204304
0.204442
0.204524
0.210225
0.210193
0.210139
0.210079
0.210024
0.209984
0.209963
0.209964
0.209988
0.210033
0.210098
0.210183
0.210285
0.210402
0.210531
0.210666
0.2108
0.210921
0.211016
0.211069
0.216272
0.216256
0.216231
0.216203
0.216181
0.216169
0.216173
0.216192
0.216229
0.216283
0.216351
0.216434
0.216528
0.216631
0.21674
0.21685
0.216955
0.217046
0.217115
0.217152
0.22188
0.221875
0.221867
0.221861
0.221861
0.221871
0.221893
0.221927
0.221975
0.222035
0.222107
0.222187
0.222276
0.222369
0.222463
0.222555
0.22264
0.222712
0.222764
0.222792
0.22705
0.227052
0.227056
0.227065
0.227081
0.227106
0.227141
0.227187
0.227244
0.22731
0.227383
0.227463
0.227547
0.227633
0.227717
0.227797
0.227868
0.227926
0.227968
0.22799
0.23177
0.231775
0.231787
0.231806
0.231834
0.23187
0.231916
0.231971
0.232034
0.232105
0.23218
0.23226
0.232341
0.232421
0.232498
0.232569
0.232631
0.232681
0.232716
0.232735
0.236014
0.236022
0.236039
0.236066
0.236101
0.236146
0.2362
0.236262
0.23633
0.236404
0.236481
0.236561
0.236639
0.236716
0.236788
0.236853
0.236909
0.236953
0.236984
0.237
0.23975
0.23976
0.239781
0.239813
0.239854
0.239905
0.239965
0.240032
0.240105
0.240181
0.24026
0.240339
0.240417
0.240491
0.240559
0.24062
0.240672
0.240712
0.24074
0.240755
0.242942
0.242954
0.242978
0.243013
0.243058
0.243114
0.243178
0.243249
0.243325
0.243404
0.243484
0.243563
0.24364
0.243712
0.243778
0.243836
0.243884
0.243922
0.243949
0.243962
0.245554
0.245566
0.245592
0.245629
0.245678
0.245737
0.245804
0.245878
0.245957
0.246037
0.246118
0.246198
0.246274
0.246344
0.246409
0.246464
0.246511
0.246547
0.246572
0.246585
0.247549
0.247562
0.247589
0.247629
0.24768
0.247741
0.24781
0.247886
0.247966
0.248048
0.24813
0.248209
0.248285
0.248355
0.248418
0.248472
0.248517
0.248552
0.248576
0.248589
0.248899
0.248913
0.248941
0.248981
0.249033
0.249096
0.249167
0.249244
0.249325
0.249408
0.24949
0.249569
0.249645
0.249714
0.249776
0.24983
0.249874
0.249908
0.249932
0.249944
0.249581
0.249595
0.249623
0.249664
0.249717
0.249781
0.249852
0.24993
0.250011
0.250094
0.250177
0.250256
0.250331
0.2504
0.250462
0.250515
0.250559
0.250593
0.250616
0.250628
0.162259
0.160676
0.159257
0.158442
0.157767
0.157282
0.156978
0.156757
0.156712
0.156665
0.156663
0.156683
0.156815
0.157141
0.157581
0.158064
0.158684
0.159547
0.160929
0.162479
0.161096
0.15716
0.155011
0.154668
0.153875
0.153309
0.153091
0.15278
0.152975
0.152861
0.152822
0.152719
0.152781
0.153253
0.153798
0.154143
0.154664
0.155326
0.157354
0.161112
0.164513
0.160547
0.158336
0.158027
0.157301
0.156907
0.156744
0.156351
0.156498
0.156402
0.156513
0.156399
0.156369
0.156764
0.1573
0.157756
0.158231
0.158709
0.160679
0.164795
0.173442
0.172063
0.17079
0.170154
0.169678
0.169493
0.169311
0.169019
0.16892
0.168914
0.169118
0.169138
0.169143
0.169335
0.169716
0.170284
0.170759
0.171253
0.172351
0.174121
0.182357
0.18182
0.181204
0.180747
0.180399
0.180168
0.179998
0.179862
0.179807
0.179812
0.179881
0.179954
0.180066
0.180266
0.180554
0.180916
0.181312
0.181774
0.182384
0.182992
0.190436
0.190199
0.189879
0.189585
0.189344
0.189165
0.189038
0.188957
0.188927
0.188942
0.188997
0.189083
0.189209
0.189387
0.189616
0.189889
0.190193
0.190527
0.190874
0.191136
0.197877
0.197762
0.197587
0.197408
0.197252
0.19713
0.197046
0.197
0.196992
0.197018
0.197077
0.197165
0.197285
0.197439
0.197625
0.197836
0.198064
0.198295
0.198505
0.19864
0.204786
0.204727
0.204631
0.204527
0.204432
0.204359
0.204312
0.204294
0.204304
0.204341
0.204404
0.204491
0.204602
0.204735
0.204888
0.205054
0.205224
0.205387
0.205522
0.205602
0.211229
0.211198
0.211148
0.211091
0.211041
0.211005
0.210988
0.210993
0.211019
0.211066
0.211132
0.211217
0.211319
0.211435
0.211562
0.211695
0.211825
0.211943
0.212036
0.212088
0.217241
0.217227
0.217204
0.217179
0.21716
0.217152
0.217159
0.217181
0.217221
0.217276
0.217346
0.217429
0.217523
0.217626
0.217734
0.217842
0.217945
0.218034
0.218101
0.218138
0.222838
0.222834
0.222828
0.222825
0.222828
0.22284
0.222865
0.222902
0.222952
0.223014
0.223086
0.223168
0.223257
0.22335
0.223444
0.223535
0.223619
0.223689
0.22374
0.223768
0.228015
0.228017
0.228023
0.228034
0.228052
0.22808
0.228118
0.228167
0.228225
0.228293
0.228368
0.228449
0.228533
0.228619
0.228703
0.228783
0.228853
0.228911
0.228953
0.228974
0.232754
0.23276
0.232773
0.232794
0.232824
0.232863
0.232911
0.232969
0.233034
0.233107
0.233184
0.233264
0.233346
0.233427
0.233504
0.233575
0.233636
0.233686
0.233721
0.233739
0.237026
0.237035
0.237053
0.237081
0.237119
0.237166
0.237223
0.237287
0.237358
0.237434
0.237513
0.237594
0.237673
0.23775
0.237823
0.237888
0.237943
0.237988
0.238018
0.238034
0.240794
0.240805
0.240827
0.24086
0.240904
0.240958
0.24102
0.24109
0.241165
0.241244
0.241325
0.241405
0.241484
0.241559
0.241627
0.241688
0.24174
0.24178
0.241808
0.241822
0.244019
0.244032
0.244057
0.244094
0.244142
0.2442
0.244267
0.244341
0.244419
0.244501
0.244583
0.244664
0.244741
0.244814
0.24488
0.244938
0.244987
0.245025
0.245051
0.245064
0.246661
0.246675
0.246701
0.246741
0.246793
0.246854
0.246925
0.247001
0.247082
0.247165
0.247249
0.24733
0.247407
0.247478
0.247543
0.247599
0.247645
0.247682
0.247706
0.247719
0.248682
0.248697
0.248725
0.248766
0.24882
0.248884
0.248957
0.249036
0.249118
0.249203
0.249287
0.249368
0.249444
0.249515
0.249578
0.249633
0.249678
0.249713
0.249737
0.249749
0.250051
0.250066
0.250095
0.250137
0.250192
0.250258
0.250332
0.250412
0.250496
0.250581
0.250666
0.250747
0.250823
0.250893
0.250956
0.25101
0.251054
0.251088
0.251112
0.251124
0.250743
0.250757
0.250787
0.25083
0.250886
0.250952
0.251027
0.251108
0.251192
0.251278
0.251362
0.251444
0.25152
0.25159
0.251652
0.251705
0.251749
0.251783
0.251806
0.251818
0.166238
0.164779
0.163438
0.162676
0.16208
0.161692
0.16143
0.161196
0.161131
0.161103
0.161159
0.161185
0.16128
0.161558
0.161976
0.162476
0.163049
0.163803
0.165084
0.166622
0.16484
0.161276
0.159093
0.158665
0.15798
0.157718
0.157564
0.157108
0.157157
0.157085
0.157324
0.157224
0.157134
0.157446
0.157971
0.158571
0.15906
0.159473
0.161326
0.165344
0.16846
0.164783
0.162719
0.162435
0.161777
0.161413
0.161265
0.160913
0.161057
0.160976
0.161077
0.160976
0.160957
0.161334
0.161837
0.162254
0.162687
0.163138
0.16499
0.168801
0.177064
0.175408
0.174353
0.17397
0.173484
0.173031
0.17283
0.172742
0.172841
0.172804
0.172698
0.172715
0.172888
0.173239
0.173595
0.173798
0.17421
0.174851
0.175985
0.17734
0.185362
0.184806
0.184257
0.183876
0.183551
0.183293
0.183134
0.183046
0.183035
0.183037
0.183057
0.183127
0.183267
0.183489
0.183757
0.18404
0.184396
0.184852
0.185432
0.185954
0.19304
0.192814
0.192525
0.192266
0.192047
0.191878
0.191764
0.191701
0.191686
0.191704
0.191754
0.191839
0.191968
0.192145
0.19236
0.192606
0.192886
0.193198
0.19352
0.193755
0.200189
0.200084
0.199927
0.199768
0.199628
0.199519
0.199447
0.199411
0.199411
0.199441
0.199501
0.199589
0.199708
0.199858
0.200035
0.200233
0.200445
0.20066
0.200854
0.200978
0.206897
0.206844
0.206759
0.206667
0.206584
0.206522
0.206484
0.206474
0.20649
0.206531
0.206596
0.206683
0.206793
0.206923
0.20707
0.207227
0.207388
0.207541
0.207667
0.20774
0.213214
0.213188
0.213144
0.213096
0.213054
0.213027
0.213017
0.213028
0.213059
0.21311
0.213179
0.213264
0.213366
0.21348
0.213603
0.21373
0.213855
0.213967
0.214054
0.214102
0.219162
0.219151
0.219132
0.219114
0.219101
0.219099
0.219112
0.21914
0.219184
0.219243
0.219315
0.2194
0.219494
0.219596
0.219702
0.219807
0.219906
0.219991
0.220055
0.22009
0.224742
0.224739
0.224737
0.224738
0.224746
0.224764
0.224794
0.224836
0.224891
0.224956
0.225032
0.225115
0.225204
0.225297
0.22539
0.225479
0.225561
0.225629
0.225678
0.225705
0.229936
0.22994
0.229948
0.229963
0.229986
0.230019
0.230062
0.230116
0.230178
0.23025
0.230328
0.230411
0.230496
0.230583
0.230666
0.230745
0.230814
0.23087
0.230911
0.230932
0.234718
0.234726
0.234741
0.234766
0.2348
0.234844
0.234897
0.23496
0.23503
0.235106
0.235186
0.235269
0.235352
0.235434
0.235511
0.235581
0.235642
0.235691
0.235725
0.235743
0.239049
0.239059
0.23908
0.239112
0.239154
0.239207
0.239268
0.239337
0.239413
0.239493
0.239576
0.239659
0.23974
0.239818
0.239891
0.239956
0.240011
0.240055
0.240085
0.240101
0.242885
0.242897
0.242922
0.242959
0.243008
0.243066
0.243134
0.243209
0.243289
0.243373
0.243457
0.24354
0.243621
0.243697
0.243766
0.243827
0.243878
0.243918
0.243946
0.24396
0.246179
0.246193
0.246221
0.246262
0.246315
0.246379
0.246451
0.24653
0.246614
0.2467
0.246786
0.24687
0.24695
0.247024
0.247091
0.247149
0.247197
0.247235
0.24726
0.247274
0.248885
0.2489
0.24893
0.248974
0.24903
0.249098
0.249174
0.249257
0.249343
0.249431
0.249518
0.249602
0.249682
0.249755
0.24982
0.249876
0.249922
0.249958
0.249982
0.249995
0.25096
0.250976
0.251007
0.251053
0.251112
0.251182
0.251261
0.251346
0.251434
0.251524
0.251612
0.251696
0.251775
0.251847
0.251911
0.251966
0.252011
0.252045
0.252068
0.25208
0.252367
0.252383
0.252415
0.252462
0.252523
0.252595
0.252675
0.252762
0.252851
0.252942
0.25303
0.253115
0.253194
0.253265
0.253328
0.253382
0.253426
0.25346
0.253483
0.253494
0.253079
0.253095
0.253128
0.253175
0.253237
0.253309
0.253391
0.253478
0.253568
0.253659
0.253748
0.253832
0.253911
0.253982
0.254045
0.254098
0.254142
0.254175
0.254197
0.254209
0.173531
0.172725
0.171843
0.171212
0.170733
0.170401
0.170171
0.170001
0.169932
0.169919
0.169963
0.170025
0.170149
0.170391
0.170738
0.171162
0.171665
0.172306
0.17318
0.174022
0.17404
0.172763
0.17165
0.171064
0.170586
0.170282
0.170077
0.169879
0.169838
0.169824
0.169893
0.169927
0.170013
0.170262
0.170629
0.171057
0.171527
0.172122
0.173187
0.174551
0.176887
0.175226
0.174049
0.173611
0.173142
0.17284
0.172668
0.172472
0.172493
0.172469
0.172527
0.172536
0.172614
0.172888
0.173254
0.173624
0.174041
0.174553
0.175668
0.177385
0.1832
0.182408
0.181701
0.181281
0.180917
0.180636
0.180467
0.180367
0.180366
0.180363
0.180378
0.180434
0.18057
0.18081
0.181099
0.181394
0.18177
0.182272
0.183
0.183754
0.190083
0.18973
0.189329
0.18901
0.188746
0.188542
0.18841
0.188338
0.188325
0.188338
0.188377
0.188456
0.18859
0.188785
0.189022
0.189285
0.189599
0.189976
0.190408
0.190758
0.196933
0.196767
0.196542
0.196331
0.196151
0.196011
0.195919
0.195872
0.195867
0.195892
0.195946
0.196034
0.196159
0.196324
0.196521
0.196742
0.196989
0.197257
0.197517
0.197696
0.20358
0.203496
0.203371
0.203241
0.203126
0.203039
0.202983
0.20296
0.202969
0.203006
0.203069
0.203158
0.203274
0.203417
0.203581
0.203761
0.203952
0.204141
0.204306
0.204409
0.209981
0.209938
0.20987
0.209796
0.209731
0.209683
0.209659
0.209659
0.209683
0.20973
0.209798
0.209886
0.209994
0.210119
0.210257
0.210404
0.210551
0.210688
0.210799
0.210863
0.216123
0.216102
0.216069
0.216033
0.216003
0.215987
0.215988
0.216007
0.216046
0.216102
0.216174
0.216261
0.216361
0.216472
0.21659
0.216711
0.216826
0.216929
0.217008
0.217052
0.22199
0.221982
0.22197
0.22196
0.221957
0.221965
0.221986
0.222022
0.222072
0.222136
0.222212
0.222298
0.222393
0.222493
0.222596
0.222697
0.22279
0.22287
0.22293
0.222962
0.227557
0.227558
0.22756
0.227568
0.227584
0.22761
0.227648
0.227697
0.227758
0.227828
0.227908
0.227994
0.228084
0.228176
0.228268
0.228354
0.228433
0.228497
0.228544
0.228569
0.232791
0.232797
0.232809
0.23283
0.23286
0.2329
0.232951
0.233012
0.233081
0.233157
0.23324
0.233326
0.233413
0.233499
0.233582
0.233659
0.233727
0.233781
0.23382
0.23384
0.237648
0.237658
0.237677
0.237708
0.237748
0.2378
0.237861
0.23793
0.238007
0.238088
0.238173
0.23826
0.238345
0.238427
0.238504
0.238574
0.238634
0.238681
0.238715
0.238732
0.242077
0.24209
0.242115
0.242152
0.242201
0.242261
0.242331
0.242408
0.24249
0.242576
0.242664
0.242751
0.242835
0.242914
0.242987
0.243051
0.243106
0.243148
0.243178
0.243193
0.246024
0.246039
0.246068
0.24611
0.246166
0.246233
0.246309
0.246392
0.246479
0.246569
0.246659
0.246747
0.24683
0.246907
0.246977
0.247037
0.247088
0.247127
0.247154
0.247168
0.24943
0.249446
0.249478
0.249525
0.249586
0.249658
0.24974
0.249828
0.249919
0.250012
0.250104
0.250192
0.250274
0.25035
0.250418
0.250475
0.250523
0.25056
0.250585
0.250597
0.252239
0.252256
0.252291
0.252341
0.252406
0.252482
0.252568
0.252659
0.252754
0.252849
0.252942
0.253031
0.253113
0.253188
0.253254
0.25331
0.253355
0.25339
0.253413
0.253425
0.254399
0.254417
0.254454
0.254506
0.254574
0.254653
0.254742
0.254836
0.254933
0.25503
0.255124
0.255214
0.255296
0.255369
0.255434
0.255488
0.255532
0.255565
0.255588
0.2556
0.255868
0.255886
0.255924
0.255978
0.256047
0.256129
0.256219
0.256315
0.256414
0.256512
0.256607
0.256696
0.256778
0.256851
0.256915
0.256968
0.257011
0.257043
0.257065
0.257077
0.256611
0.25663
0.256668
0.256723
0.256794
0.256876
0.256967
0.257064
0.257164
0.257262
0.257357
0.257447
0.257529
0.257601
0.257665
0.257717
0.25776
0.257792
0.257813
0.257824
0.181601
0.181192
0.180669
0.180221
0.179865
0.179604
0.17942
0.179298
0.179245
0.179243
0.179288
0.179369
0.179503
0.179714
0.179997
0.180341
0.180746
0.181224
0.181763
0.182192
0.182681
0.182175
0.181599
0.181162
0.180816
0.180567
0.180395
0.180275
0.180231
0.180233
0.180281
0.180356
0.180482
0.180691
0.180973
0.18131
0.181699
0.182168
0.182754
0.183287
0.185438
0.184885
0.184321
0.183933
0.183615
0.183385
0.183232
0.183126
0.183101
0.183106
0.183154
0.183224
0.183347
0.183554
0.183824
0.184132
0.184489
0.184921
0.185498
0.18607
0.190119
0.189766
0.189362
0.189042
0.18878
0.188582
0.188452
0.188377
0.18836
0.188374
0.188418
0.188498
0.188629
0.18882
0.189057
0.189325
0.189639
0.190012
0.190444
0.190803
0.19574
0.195543
0.195285
0.195051
0.194855
0.194704
0.194605
0.194554
0.194546
0.19457
0.194623
0.194709
0.194837
0.195007
0.195211
0.195442
0.195704
0.195993
0.196285
0.196494
0.201736
0.201629
0.201473
0.201317
0.201182
0.201078
0.201012
0.200983
0.200988
0.201022
0.201083
0.201173
0.201293
0.201443
0.201618
0.201812
0.202022
0.202236
0.202431
0.202556
0.207834
0.207776
0.207685
0.207589
0.207505
0.207443
0.207407
0.207399
0.207419
0.207463
0.20753
0.20762
0.207733
0.207866
0.208015
0.208176
0.208342
0.2085
0.208633
0.208712
0.2139
0.21387
0.213821
0.213769
0.213724
0.213695
0.213686
0.213699
0.213732
0.213786
0.213858
0.213948
0.214053
0.214172
0.2143
0.214434
0.214565
0.214684
0.214779
0.214832
0.21986
0.219846
0.219824
0.219802
0.219788
0.219786
0.219799
0.21983
0.219877
0.219939
0.220016
0.220104
0.220204
0.220311
0.220423
0.220535
0.22064
0.220733
0.220802
0.220841
0.225655
0.225652
0.225649
0.225649
0.225657
0.225676
0.225709
0.225754
0.225813
0.225883
0.225964
0.226053
0.226147
0.226246
0.226345
0.22644
0.226528
0.226601
0.226655
0.226684
0.231236
0.23124
0.231249
0.231265
0.231291
0.231327
0.231375
0.231433
0.231502
0.231579
0.231664
0.231753
0.231844
0.231936
0.232025
0.232109
0.232183
0.232244
0.232288
0.23231
0.236545
0.236554
0.236572
0.2366
0.23664
0.23669
0.23675
0.23682
0.236897
0.236981
0.237069
0.237158
0.237248
0.237335
0.237417
0.237492
0.237556
0.237608
0.237645
0.237664
0.241523
0.241535
0.24156
0.241598
0.241648
0.241709
0.24178
0.241859
0.241945
0.242034
0.242125
0.242215
0.242303
0.242387
0.242464
0.242532
0.24259
0.242636
0.242667
0.242684
0.246102
0.246117
0.246148
0.246193
0.246251
0.246322
0.246402
0.246489
0.246581
0.246675
0.246769
0.246861
0.246948
0.247029
0.247102
0.247165
0.247218
0.247259
0.247287
0.247302
0.250212
0.25023
0.250265
0.250316
0.250382
0.250459
0.250547
0.250641
0.250739
0.250837
0.250934
0.251027
0.251113
0.251192
0.251262
0.251322
0.251371
0.251408
0.251434
0.251447
0.253782
0.253801
0.25384
0.253896
0.253967
0.254051
0.254145
0.254245
0.254347
0.254449
0.254548
0.254642
0.254728
0.254806
0.254873
0.25493
0.254976
0.255011
0.255034
0.255046
0.256741
0.256762
0.256803
0.256863
0.256939
0.257028
0.257127
0.257231
0.257337
0.257442
0.257543
0.257638
0.257724
0.2578
0.257866
0.25792
0.257964
0.257997
0.258018
0.25803
0.259026
0.259048
0.259091
0.259154
0.259234
0.259327
0.259429
0.259536
0.259646
0.259753
0.259855
0.25995
0.260036
0.260111
0.260175
0.260228
0.26027
0.260301
0.260322
0.260333
0.260584
0.260606
0.260651
0.260716
0.260798
0.260893
0.260998
0.261108
0.261219
0.261327
0.26143
0.261526
0.261611
0.261686
0.261749
0.261801
0.261841
0.261871
0.261891
0.261901
0.261374
0.261397
0.261443
0.261508
0.261591
0.261688
0.261794
0.261905
0.262016
0.262126
0.262229
0.262325
0.26241
0.262485
0.262547
0.262598
0.262638
0.262668
0.262687
0.262697
0.189494
0.189285
0.188984
0.188692
0.188445
0.188255
0.188121
0.188038
0.188006
0.188017
0.188067
0.188155
0.188286
0.188467
0.188697
0.18897
0.189279
0.189615
0.189943
0.19017
0.190661
0.190435
0.190128
0.189844
0.189606
0.189426
0.189299
0.189222
0.189195
0.189209
0.189261
0.189347
0.189475
0.189654
0.18988
0.190145
0.190444
0.190773
0.191109
0.191353
0.193163
0.19294
0.192652
0.192395
0.19218
0.192017
0.191906
0.19184
0.191823
0.191842
0.191895
0.191981
0.192106
0.192279
0.192495
0.192742
0.19302
0.193327
0.193645
0.193886
0.196999
0.196834
0.196609
0.196399
0.196221
0.196084
0.195993
0.195945
0.195939
0.195965
0.196021
0.196108
0.196232
0.196395
0.196592
0.196814
0.19706
0.197325
0.197585
0.197766
0.201764
0.201657
0.201501
0.201345
0.201211
0.201108
0.201042
0.201013
0.201018
0.201052
0.201114
0.201203
0.201323
0.201472
0.201647
0.201842
0.202051
0.202265
0.202459
0.202585
0.207087
0.207022
0.206922
0.206818
0.206726
0.206658
0.206618
0.206608
0.206626
0.206669
0.206736
0.206827
0.206941
0.207077
0.20723
0.207397
0.207569
0.207736
0.207878
0.207964
0.212717
0.212681
0.212622
0.212559
0.212505
0.212468
0.212454
0.212462
0.212494
0.212546
0.212618
0.212709
0.212817
0.21294
0.213075
0.213216
0.213356
0.213486
0.21359
0.21365
0.218494
0.218476
0.218446
0.218415
0.218392
0.218383
0.218391
0.218417
0.218462
0.218523
0.2186
0.218691
0.218794
0.218906
0.219025
0.219144
0.219259
0.219361
0.219439
0.219482
0.224309
0.224302
0.224292
0.224286
0.224288
0.224301
0.224329
0.224372
0.224429
0.224499
0.22458
0.224671
0.22477
0.224873
0.224978
0.225081
0.225176
0.225258
0.225318
0.225351
0.230074
0.230076
0.230081
0.230093
0.230115
0.230147
0.230192
0.230249
0.230318
0.230396
0.230482
0.230573
0.230669
0.230765
0.23086
0.23095
0.23103
0.231097
0.231145
0.231171
0.235715
0.235723
0.235739
0.235765
0.235803
0.235851
0.235911
0.235981
0.23606
0.236145
0.236235
0.236328
0.236421
0.236512
0.236599
0.236679
0.236749
0.236805
0.236845
0.236866
0.241155
0.241167
0.241192
0.24123
0.24128
0.241342
0.241415
0.241497
0.241584
0.241677
0.241771
0.241865
0.241957
0.242044
0.242125
0.242197
0.242259
0.242308
0.242342
0.242359
0.246314
0.24633
0.246362
0.246409