# vtk DataFile Version 2.0
Pressure 3D1D coupled problem
ASCII
DATASET UNSTRUCTURED_GRID
POINTS 9261 float
0 0 0
0 0 0.1
0 0 0.2
0 0 0.3
0 0 0.4
0 0 0.5
0 0 0.6
0 0 0.7
0 0 0.8
0 0 0.9
0 0 1
0 0 1.1
0 0 1.2
0 0 1.3
0 0 1.4
0 0 1.5
0 0 1.6
0 0 1.7
0 0 1.8
0 0 1.9
0 0 2
0 0.1 0
0 0.1 0.1
0 0.1 0.2
0 0.1 0.3
0 0.1 0.4
0 0.1 0.5
0 0.1 0.6
0 0.1 0.7
0 0.1 0.8
0 0.1 0.9
0 0.1 1
0 0.1 1.1
0 0.1 1.2
0 0.1 1.3
0 0.1 1.4
0 0.1 1.5
0 0.1 1.6
0 0.1 1.7
0 0.1 1.8
0 0.1 1.9
0 0.1 2
0 0.2 0
0 0.2 0.1
0 0.2 0.2
0 0.2 0.3
0 0.2 0.4
0 0.2 0.5
0 0.2 0.6
0 0.2 0.7
0 0.2 0.8
0 0.2 0.9
0 0.2 1
0 0.2 1.1
0 0.2 1.2
0 0.2 1.3
0 0.2 1.4
0 0.2 1.5
0 0.2 1.6
0 0.2 1.7
0 0.2 1.8
0 0.2 1.9
0 0.2 2
0 0.3 0
0 0.3 0.1
0 0.3 0.2
0 0.3 0.3
0 0.3 0.4
0 0.3 0.5
0 0.3 0.6
0 0.3 0.7
0 0.3 0.8
0 0.3 0.9
0 0.3 1
0 0.3 1.1
0 0.3 1.2
0 0.3 1.3
0 0.3 1.4
0 0.3 1.5
0 0.3 1.6
0 0.3 1.7
0 0.3 1.8
0 0.3 1.9
0 0.3 2
0 0.4 0
0 0.4 0.1
0 0.4 0.2
0 0.4 0.3
0 0.4 0.4
0 0.4 0.5
0 0.4 0.6
0 0.4 0.7
0 0.4 0.8
0 0.4 0.9
0 0.4 1
0 0.4 1.1
0 0.4 1.2
0 0.4 1.3
0 0.4 1.4
0 0.4 1.5
0 0.4 1.6
0 0.4 1.7
0 0.4 1.8
0 0.4 1.9
0 0.4 2
0 0.5 0
0 0.5 0.1
0 0.5 0.2
0 0.5 0.3
0 0.5 0.4
0 0.5 0.5
0 0.5 0.6
0 0.5 0.7
0 0.5 0.8
0 0.5 0.9
0 0.5 1
0 0.5 1.1
0 0.5 1.2
0 0.5 1.3
0 0.5 1.4
0 0.5 1.5
0 0.5 1.6
0 0.5 1.7
0 0.5 1.8
0 0.5 1.9
0 0.5 2
0 0.6 0
0 0.6 0.1
0 0.6 0.2
0 0.6 0.3
0 0.6 0.4
0 0.6 0.5
0 0.6 0.6
0 0.6 0.7
0 0.6 0.8
0 0.6 0.9
0 0.6 1
0 0.6 1.1
0 0.6 1.2
0 0.6 1.3
0 0.6 1.4
0 0.6 1.5
0 0.6 1.6
0 0.6 1.7
0 0.6 1.8
0 0.6 1.9
0 0.6 2
0 0.7 0
0 0.7 0.1
0 0.7 0.2
0 0.7 0.3
0 0.7 0.4
0 0.7 0.5
0 0.7 0.6
0 0.7 0.7
0 0.7 0.8
0 0.7 0.9
0 0.7 1
0 0.7 1.1
0 0.7 1.2
0 0.7 1.3
0 0.7 1.4
0 0.7 1.5
0 0.7 1.6
0 0.7 1.7
0 0.7 1.8
0 0.7 1.9
0 0.7 2
0 0.8 0
0 0.8 0.1
0 0.8 0.2
0 0.8 0.3
0 0.8 0.4
0 0.8 0.5
0 0.8 0.6
0 0.8 0.7
0 0.8 0.8
0 0.8 0.9
0 0.8 1
0 0.8 1.1
0 0.8 1.2
0 0.8 1.3
0 0.8 1.4
0 0.8 1.5
0 0.8 1.6
0 0.8 1.7
0 0.8 1.8
0 0.8 1.9
0 0.8 2
0 0.9 0
0 0.9 0.1
0 0.9 0.2
0 0.9 0.3
0 0.9 0.4
0 0.9 0.5
0 0.9 0.6
0 0.9 0.7
0 0.9 0.8
0 0.9 0.9
0 0.9 1
0 0.9 1.1
0 0.9 1.2
0 0.9 1.3
0 0.9 1.4
0 0.9 1.5
0 0.9 1.6
0 0.9 1.7
0 0.9 1.8
0 0.9 1.9
0 0.9 2
0 1 0
0 1 0.1
0 1 0.2
0 1 0.3
0 1 0.4
0 1 0.5
0 1 0.6
0 1 0.7
0 1 0.8
0 1 0.9
0 1 1
0 1 1.1
0 1 1.2
0 1 1.3
0 1 1.4
0 1 1.5
0 1 1.6
0 1 1.7
0 1 1.8
0 1 1.9
0 1 2
0 1.1 0
0 1.1 0.1
0 1.1 0.2
0 1.1 0.3
0 1.1 0.4
0 1.1 0.5
0 1.1 0.6
0 1.1 0.7
0 1.1 0.8
0 1.1 0.9
0 1.1 1
0 1.1 1.1
0 1.1 1.2
0 1.1 1.3
0 1.1 1.4
0 1.1 1.5
0 1.1 1.6
0 1.1 1.7
0 1.1 1.8
0 1.1 1.9
0 1.1 2
0 1.2 0
0 1.2 0.1
0 1.2 0.2
0 1.2 0.3
0 1.2 0.4
0 1.2 0.5
0 1.2 0.6
0 1.2 0.7
0 1.2 0.8
0 1.2 0.9
0 1.2 1
0 1.2 1.1
0 1.2 1.2
0 1.2 1.3
0 1.2 1.4
0 1.2 1.5
0 1.2 1.6
0 1.2 1.7
0 1.2 1.8
0 1.2 1.9
0 1.2 2
0 1.3 0
0 1.3 0.1
0 1.3 0.2
0 1.3 0.3
0 1.3 0.4
0 1.3 0.5
0 1.3 0.6
0 1.3 0.7
0 1.3 0.8
0 1.3 0.9
0 1.3 1
0 1.3 1.1
0 1.3 1.2
0 1.3 1.3
0 1.3 1.4
0 1.3 1.5
0 1.3 1.6
0 1.3 1.7
0 1.3 1.8
0 1.3 1.9
0 1.3 2
0 1.4 0
0 1.4 0.1
0 1.4 0.2
0 1.4 0.3
0 1.4 0.4
0 1.4 0.5
0 1.4 0.6
0 1.4 0.7
0 1.4 0.8
0 1.4 0.9
0 1.4 1
0 1.4 1.1
0 1.4 1.2
0 1.4 1.3
0 1.4 1.4
0 1.4 1.5
0 1.4 1.6
0 1.4 1.7
0 1.4 1.8
0 1.4 1.9
0 1.4 2
0 1.5 0
0 1.5 0.1
0 1.5 0.2
0 1.5 0.3
0 1.5 0.4
0 1.5 0.5
0 1.5 0.6
0 1.5 0.7
0 1.5 0.8
0 1.5 0.9
0 1.5 1
0 1.5 1.1
0 1.5 1.2
0 1.5 1.3
0 1.5 1.4
0 1.5 1.5
0 1.5 1.6
0 1.5 1.7
0 1.5 1.8
0 1.5 1.9
0 1.5 2
0 1.6 0
0 1.6 0.1
0 1.6 0.2
0 1.6 0.3
0 1.6 0.4
0 1.6 0.5
0 1.6 0.6
0 1.6 0.7
0 1.6 0.8
0 1.6 0.9
0 1.6 1
0 1.6 1.1
0 1.6 1.2
0 1.6 1.3
0 1.6 1.4
0 1.6 1.5
0 1.6 1.6
0 1.6 1.7
0 1.6 1.8
0 1.6 1.9
0 1.6 2
0 1.7 0
0 1.7 0.1
0 1.7 0.2
0 1.7 0.3
0 1.7 0.4
0 1.7 0.5
0 1.7 0.6
0 1.7 0.7
0 1.7 0.8
0 1.7 0.9
0 1.7 1
0 1.7 1.1
0 1.7 1.2
0 1.7 1.3
0 1.7 1.4
0 1.7 1.5
0 1.7 1.6
0 1.7 1.7
0 1.7 1.8
0 1.7 1.9
0 1.7 2
0 1.8 0
0 1.8 0.1
0 1.8 0.2
0 1.8 0.3
0 1.8 0.4
0 1.8 0.5
0 1.8 0.6
0 1.8 0.7
0 1.8 0.8
0 1.8 0.9
0 1.8 1
0 1.8 1.1
0 1.8 1.2
0 1.8 1.3
0 1.8 1.4
0 1.8 1.5
0 1.8 1.6
0 1.8 1.7
0 1.8 1.8
0 1.8 1.9
0 1.8 2
0 1.9 0
0 1.9 0.1
0 1.9 0.2
0 1.9 0.3
0 1.9 0.4
0 1.9 0.5
0 1.9 0.6
0 1.9 0.7
0 1.9 0.8
0 1.9 0.9
0 1.9 1
0 1.9 1.1
0 1.9 1.2
0 1.9 1.3
0 1.9 1.4
0 1.9 1.5
0 1.9 1.6
0 1.9 1.7
0 1.9 1.8
0 1.9 1.9
0 1.9 2
0 2 0
0 2 0.1
0 2 0.2
0 2 0.3
0 2 0.4
0 2 0.5
0 2 0.6
0 2 0.7
0 2 0.8
0 2 0.9
0 2 1
0 2 1.1
0 2 1.2
0 2 1.3
0 2 1.4
0 2 1.5
0 2 1.6
0 2 1.7
0 2 1.8
0 2 1.9
0 2 2
0.1 0 0
0.1 0 0.1
0.1 0 0.2
0.1 0 0.3
0.1 0 0.4
0.1 0 0.5
0.1 0 0.6
0.1 0 0.7
0.1 0 0.8
0.1 0 0.9
0.1 0 1
0.1 0 1.1
0.1 0 1.2
0.1 0 1.3
0.1 0 1.4
0.1 0 1.5
0.1 0 1.6
0.1 0 1.7
0.1 0 1.8
0.1 0 1.9
0.1 0 2
0.1 0.1 0
0.1 0.1 0.1
0.1 0.1 0.2
0.1 0.1 0.3
0.1 0.1 0.4
0.1 0.1 0.5
0.1 0.1 0.6
0.1 0.1 0.7
0.1 0.1 0.8
0.1 0.1 0.9
0.1 0.1 1
0.1 0.1 1.1
0.1 0.1 1.2
0.1 0.1 1.3
0.1 0.1 1.4
0.1 0.1 1.5
0.1 0.1 1.6
0.1 0.1 1.7
0.1 0.1 1.8
0.1 0.1 1.9
0.1 0.1 2
0.1 0.2 0
0.1 0.2 0.1
0.1 0.2 0.2
0.1 0.2 0.3
0.1 0.2 0.4
0.1 0.2 0.5
0.1 0.2 0.6
0.1 0.2 0.7
0.1 0.2 0.8
0.1 0.2 0.9
0.1 0.2 1
0.1 0.2 1.1
0.1 0.2 1.2
0.1 0.2 1.3
0.1 0.2 1.4
0.1 0.2 1.5
0.1 0.2 1.6
0.1 0.2 1.7
0.1 0.2 1.8
0.1 0.2 1.9
0.1 0.2 2
0.1 0.3 0
0.1 0.3 0.1
0.1 0.3 0.2
0.1 0.3 0.3
0.1 0.3 0.4
0.1 0.3 0.5
0.1 0.3 0.6
0.1 0.3 0.7
0.1 0.3 0.8
0.1 0.3 0.9
0.1 0.3 1
0.1 0.3 1.1
0.1 0.3 1.2
0.1 0.3 1.3
0.1 0.3 1.4
0.1 0.3 1.5
0.1 0.3 1.6
0.1 0.3 1.7
0.1 0.3 1.8
0.1 0.3 1.9
0.1 0.3 2
0.1 0.4 0
0.1 0.4 0.1
0.1 0.4 0.2
0.1 0.4 0.3
0.1 0.4 0.4
0.1 0.4 0.5
0.1 0.4 0.6
0.1 0.4 0.7
0.1 0.4 0.8
0.1 0.4 0.9
0.1 0.4 1
0.1 0.4 1.1
0.1 0.4 1.2
0.1 0.4 1.3
0.1 0.4 1.4
0.1 0.4 1.5
0.1 0.4 1.6
0.1 0.4 1.7
0.1 0.4 1.8
0.1 0.4 1.9
0.1 0.4 2
0.1 0.5 0
0.1 0.5 0.1
0.1 0.5 0.2
0.1 0.5 0.3
0.1 0.5 0.4
0.1 0.5 0.5
0.1 0.5 0.6
0.1 0.5 0.7
0.1 0.5 0.8
0.1 0.5 0.9
0.1 0.5 1
0.1 0.5 1.1
0.1 0.5 1.2
0.1 0.5 1.3
0.1 0.5 1.4
0.1 0.5 1.5
0.1 0.5 1.6
0.1 0.5 1.7
0.1 0.5 1.8
0.1 0.5 1.9
0.1 0.5 2
0.1 0.6 0
0.1 0.6 0.1
0.1 0.6 0.2
0.1 0.6 0.3
0.1 0.6 0.4
0.1 0.6 0.5
0.1 0.6 0.6
0.1 0.6 0.7
0.1 0.6 0.8
0.1 0.6 0.9
0.1 0.6 1
0.1 0.6 1.1
0.1 0.6 1.2
0.1 0.6 1.3
0.1 0.6 1.4
0.1 0.6 1.5
0.1 0.6 1.6
0.1 0.6 1.7
0.1 0.6 1.8
0.1 0.6 1.9
0.1 0.6 2
0.1 0.7 0
0.1 0.7 0.1
0.1 0.7 0.2
0.1 0.7 0.3
0.1 0.7 0.4
0.1 0.7 0.5
0.1 0.7 0.6
0.1 0.7 0.7
0.1 0.7 0.8
0.1 0.7 0.9
0.1 0.7 1
0.1 0.7 1.1
0.1 0.7 1.2
0.1 0.7 1.3
0.1 0.7 1.4
0.1 0.7 1.5
0.1 0.7 1.6
0.1 0.7 1.7
0.1 0.7 1.8
0.1 0.7 1.9
0.1 0.7 2
0.1 0.8 0
0.1 0.8 0.1
0.1 0.8 0.2
0.1 0.8 0.3
0.1 0.8 0.4
0.1 0.8 0.5
0.1 0.8 0.6
0.1 0.8 0.7
0.1 0.8 0.8
0.1 0.8 0.9
0.1 0.8 1
0.1 0.8 1.1
0.1 0.8 1.2
0.1 0.8 1.3
0.1 0.8 1.4
0.1 0.8 1.5
0.1 0.8 1.6
0.1 0.8 1.7
0.1 0.8 1.8
0.1 0.8 1.9
0.1 0.8 2
0.1 0.9 0
0.1 0.9 0.1
0.1 0.9 0.2
0.1 0.9 0.3
0.1 0.9 0.4
0.1 0.9 0.5
0.1 0.9 0.6
0.1 0.9 0.7
0.1 0.9 0.8
0.1 0.9 0.9
0.1 0.9 1
0.1 0.9 1.1
0.1 0.9 1.2
0.1 0.9 1.3
0.1 0.9 1.4
0.1 0.9 1.5
0.1 0.9 1.6
0.1 0.9 1.7
0.1 0.9 1.8
0.1 0.9 1.9
0.1 0.9 2
0.1 1 0
0.1 1 0.1
0.1 1 0.2
0.1 1 0.3
0.1 1 0.4
0.1 1 0.5
0.1 1 0.6
0.1 1 0.7
0.1 1 0.8
0.1 1 0.9
0.1 1 1
0.1 1 1.1
0.1 1 1.2
0.1 1 1.3
0.1 1 1.4
0.1 1 1.5
0.1 1 1.6
0.1 1 1.7
0.1 1 1.8
0.1 1 1.9
0.1 1 2
0.1 1.1 0
0.1 1.1 0.1
0.1 1.1 0.2
0.1 1.1 0.3
0.1 1.1 0.4
0.1 1.1 0.5
0.1 1.1 0.6
0.1 1.1 0.7
0.1 1.1 0.8
0.1 1.1 0.9
0.1 1.1 1
0.1 1.1 1.1
0.1 1.1 1.2
0.1 1.1 1.3
0.1 1.1 1.4
0.1 1.1 1.5
0.1 1.1 1.6
0.1 1.1 1.7
0.1 1.1 1.8
0.1 1.1 1.9
0.1 1.1 2
0.1 1.2 0
0.1 1.2 0.1
0.1 1.2 0.2
0.1 1.2 0.3
0.1 1.2 0.4
0.1 1.2 0.5
0.1 1.2 0.6
0.1 1.2 0.7
0.1 1.2 0.8
0.1 1.2 0.9
0.1 1.2 1
0.1 1.2 1.1
0.1 1.2 1.2
0.1 1.2 1.3
0.1 1.2 1.4
0.1 1.2 1.5
0.1 1.2 1.6
0.1 1.2 1.7
0.1 1.2 1.8
0.1 1.2 1.9
0.1 1.2 2
0.1 1.3 0
0.1 1.3 0.1
0.1 1.3 0.2
0.1 1.3 0.3
0.1 1.3 0.4
0.1 1.3 0.5
0.1 1.3 0.6
0.1 1.3 0.7
0.1 1.3 0.8
0.1 1.3 0.9
0.1 1.3 1
0.1 1.3 1.1
0.1 1.3 1.2
0.1 1.3 1.3
0.1 1.3 1.4
0.1 1.3 1.5
0.1 1.3 1.6
0.1 1.3 1.7
0.1 1.3 1.8
0.1 1.3 1.9
0.1 1.3 2
0.1 1.4 0
0.1 1.4 0.1
0.1 1.4 0.2
0.1 1.4 0.3
0.1 1.4 0.4
0.1 1.4 0.5
0.1 1.4 0.6
0.1 1.4 0.7
0.1 1.4 0.8
0.1 1.4 0.9
0.1 1.4 1
0.1 1.4 1.1
0.1 1.4 1.2
0.1 1.4 1.3
0.1 1.4 1.4
0.1 1.4 1.5
0.1 1.4 1.6
0.1 1.4 1.7
0.1 1.4 1.8
0.1 1.4 1.9
0.1 1.4 2
0.1 1.5 0
0.1 1.5 0.1
0.1 1.5 0.2
0.1 1.5 0.3
0.1 1.5 0.4
0.1 1.5 0.5
0.1 1.5 0.6
0.1 1.5 0.7
0.1 1.5 0.8
0.1 1.5 0.9
0.1 1.5 1
0.1 1.5 1.1
0.1 1.5 1.2
0.1 1.5 1.3
0.1 1.5 1.4
0.1 1.5 1.5
0.1 1.5 1.6
0.1 1.5 1.7
0.1 1.5 1.8
0.1 1.5 1.9
0.1 1.5 2
0.1 1.6 0
0.1 1.6 0.1
0.1 1.6 0.2
0.1 1.6 0.3
0.1 1.6 0.4
0.1 1.6 0.5
0.1 1.6 0.6
0.1 1.6 0.7
0.1 1.6 0.8
0.1 1.6 0.9
0.1 1.6 1
0.1 1.6 1.1
0.1 1.6 1.2
0.1 1.6 1.3
0.1 1.6 1.4
0.1 1.6 1.5
0.1 1.6 1.6
0.1 1.6 1.7
0.1 1.6 1.8
0.1 1.6 1.9
0.1 1.6 2
0.1 1.7 0
0.1 1.7 0.1
0.1 1.7 0.2
0.1 1.7 0.3
0.1 1.7 0.4
0.1 1.7 0.5
0.1 1.7 0.6
0.1 1.7 0.7
0.1 1.7 0.8
0.1 1.7 0.9
0.1 1.7 1
0.1 1.7 1.1
0.1 1.7 1.2
0.1 1.7 1.3
0.1 1.7 1.4
0.1 1.7 1.5
0.1 1.7 1.6
0.1 1.7 1.7
0.1 1.7 1.8
0.1 1.7 1.9
0.1 1.7 2
0.1 1.8 0
0.1 1.8 0.1
0.1 1.8 0.2
0.1 1.8 0.3
0.1 1.8 0.4
0.1 1.8 0.5
0.1 1.8 0.6
0.1 1.8 0.7
0.1 1.8 0.8
0.1 1.8 0.9
0.1 1.8 1
0.1 1.8 1.1
0.1 1.8 1.2
0.1 1.8 1.3
0.1 1.8 1.4
0.1 1.8 1.5
0.1 1.8 1.6
0.1 1.8 1.7
0.1 1.8 1.8
0.1 1.8 1.9
0.1 1.8 2
0.1 1.9 0
0.1 1.9 0.1
0.1 1.9 0.2
0.1 1.9 0.3
0.1 1.9 0.4
0.1 1.9 0.5
0.1 1.9 0.6
0.1 1.9 0.7
0.1 1.9 0.8
0.1 1.9 0.9
0.1 1.9 1
0.1 1.9 1.1
0.1 1.9 1.2
0.1 1.9 1.3
0.1 1.9 1.4
0.1 1.9 1.5
0.1 1.9 1.6
0.1 1.9 1.7
0.1 1.9 1.8
0.1 1.9 1.9
0.1 1.9 2
0.1 2 0
0.1 2 0.1
0.1 2 0.2
0.1 2 0.3
0.1 2 0.4
0.1 2 0.5
0.1 2 0.6
0.1 2 0.7
0.1 2 0.8
0.1 2 0.9
0.1 2 1
0.1 2 1.1
0.1 2 1.2
0.1 2 1.3
0.1 2 1.4
0.1 2 1.5
0.1 2 1.6
0.1 2 1.7
0.1 2 1.8
0.1 2 1.9
0.1 2 2
0.2 0 0
0.2 0 0.1
0.2 0 0.2
0.2 0 0.3
0.2 0 0.4
0.2 0 0.5
0.2 0 0.6
0.2 0 0.7
0.2 0 0.8
0.2 0 0.9
0.2 0 1
0.2 0 1.1
0.2 0 1.2
0.2 0 1.3
0.2 0 1.4
0.2 0 1.5
0.2 0 1.6
0.2 0 1.7
0.2 0 1.8
0.2 0 1.9
0.2 0 2
0.2 0.1 0
0.2 0.1 0.1
0.2 0.1 0.2
0.2 0.1 0.3
0.2 0.1 0.4
0.2 0.1 0.5
0.2 0.1 0.6
0.2 0.1 0.7
0.2 0.1 0.8
0.2 0.1 0.9
0.2 0.1 1
0.2 0.1 1.1
0.2 0.1 1.2
0.2 0.1 1.3
0.2 0.1 1.4
0.2 0.1 1.5
0.2 0.1 1.6
0.2 0.1 1.7
0.2 0.1 1.8
0.2 0.1 1.9
0.2 0.1 2
0.2 0.2 0
0.2 0.2 0.1
0.2 0.2 0.2
0.2 0.2 0.3
0.2 0.2 0.4
0.2 0.2 0.5
0.2 0.2 0.6
0.2 0.2 0.7
0.2 0.2 0.8
0.2 0.2 0.9
0.2 0.2 1
0.2 0.2 1.1
0.2 0.2 1.2
0.2 0.2 1.3
0.2 0.2 1.4
0.2 0.2 1.5
0.2 0.2 1.6
0.2 0.2 1.7
0.2 0.2 1.8
0.2 0.2 1.9
[...]
CELL_DATA 8000
SCALARS Phi_sigma_(3D) float 1
LOOKUP_TABLE default
0.0365988
0.0362868
0.0359467
0.0357018
0.0355134
0.0353766
0.0352859
0.0352257
0.0351994
0.035182
0.0351743
0.0351784
0.0352108
0.0352853
0.0353914
0.0355216
0.0356948
0.0359365
0.0362654
0.0365679
0.0370028
0.0365434
0.0361375
0.0359102
0.0357222
0.0355865
0.0355026
0.0354408
0.0354276
0.0354093
0.0354
0.0353955
0.035422
0.0355029
0.0356137
0.0357348
0.0358967
0.0361318
0.0365218
0.0369662
0.0384951
0.0380458
0.0376529
0.037443
0.0372737
0.0371598
0.0370866
0.0370233
0.0370084
0.0369942
0.0369963
0.0369922
0.0370103
0.0370817
0.0371874
0.0373083
0.0374568
0.0376659
0.0380385
0.0384933
0.0411777
0.0409304
0.0406624
0.0404796
0.0403467
0.0402622
0.0402002
0.0401458
0.0401204
0.0401128
0.0401255
0.0401324
0.0401503
0.0402025
0.0402894
0.0404045
0.0405358
0.0407049
0.0409587
0.0412286
0.0443462
0.044223
0.0440674
0.0439388
0.0438406
0.0437719
0.043722
0.0436846
0.0436652
0.0436605
0.0436688
0.0436819
0.0437059
0.0437509
0.0438187
0.0439068
0.0440107
0.044137
0.0442902
0.0444218
0.0476562
0.0475949
0.0475081
0.0474261
0.0473587
0.0473082
0.0472719
0.0472473
0.0472349
0.0472334
0.0472413
0.0472565
0.0472813
0.0473193
0.0473717
0.0474372
0.0475137
0.0476001
0.0476897
0.0477549
0.0510108
0.0509797
0.050932
0.0508827
0.0508399
0.0508066
0.050783
0.0507685
0.0507627
0.0507647
0.0507738
0.0507894
0.0508122
0.0508436
0.0508837
0.0509318
0.0509859
0.0510429
0.0510958
0.0511301
0.0543818
0.054366
0.0543406
0.054313
0.0542884
0.0542694
0.0542569
0.0542508
0.0542507
0.0542562
0.0542667
0.054282
0.0543022
0.0543277
0.0543584
0.0543933
0.0544309
0.0544681
0.0545001
0.0545193
0.0577526
0.0577451
0.0577329
0.0577196
0.0577081
0.0577004
0.0576969
0.0576978
0.0577028
0.0577114
0.0577233
0.0577382
0.057756
0.0577767
0.0578
0.0578253
0.0578511
0.0578755
0.0578952
0.0579066
0.0611005
0.0610979
0.0610939
0.0610901
0.0610883
0.0610891
0.061093
0.0610998
0.0611091
0.0611206
0.0611337
0.0611483
0.0611641
0.061181
0.0611988
0.061217
0.0612347
0.0612506
0.061263
0.0612698
0.0643929
0.0643933
0.0643946
0.0643976
0.0644027
0.0644102
0.06442
0.0644318
0.0644449
0.0644588
0.0644732
0.0644876
0.0645018
0.0645159
0.0645295
0.0645426
0.0645546
0.0645649
0.0645725
0.0645767
0.0675872
0.0675896
0.0675947
0.0676025
0.0676129
0.0676256
0.0676402
0.067656
0.0676724
0.0676885
0.067704
0.0677184
0.0677316
0.0677434
0.067754
0.0677633
0.0677713
0.0677778
0.0677824
0.0677848
0.0706331
0.070637
0.0706448
0.0706562
0.0706707
0.0706876
0.0707062
0.0707255
0.0707445
0.0707626
0.0707791
0.0707937
0.070806
0.0708162
0.0708245
0.0708311
0.0708361
0.0708399
0.0708424
0.0708437
0.0734749
0.0734799
0.0734898
0.073504
0.0735217
0.0735421
0.073564
0.0735862
0.0736076
0.0736275
0.0736449
0.0736596
0.0736714
0.0736804
0.0736869
0.0736913
0.0736942
0.073696
0.073697
0.0736975
0.0760542
0.0760601
0.0760716
0.0760881
0.0761085
0.0761317
0.0761563
0.076181
0.0762045
0.0762258
0.0762441
0.076259
0.0762703
0.0762783
0.0762834
0.0762863
0.0762875
0.0762878
0.0762877
0.0762876
0.0783131
0.0783197
0.0783325
0.0783508
0.0783734
0.0783989
0.0784257
0.0784525
0.0784777
0.0785002
0.0785192
0.0785343
0.0785453
0.0785526
0.0785566
0.0785582
0.0785581
0.0785572
0.0785563
0.0785557
0.0801969
0.080204
0.0802179
0.0802376
0.0802619
0.0802892
0.0803178
0.0803462
0.0803728
0.0803963
0.0804159
0.0804312
0.0804419
0.0804486
0.0804518
0.0804523
0.0804513
0.0804495
0.0804479
0.080447
0.0816572
0.0816647
0.0816793
0.0817001
0.0817256
0.0817543
0.0817843
0.0818139
0.0818415
0.0818658
0.0818859
0.0819012
0.0819118
0.081918
0.0819205
0.0819203
0.0819185
0.0819161
0.081914
0.0819128
0.0826546
0.0826623
0.0826775
0.0826989
0.0827253
0.0827549
0.0827858
0.0828163
0.0828445
0.0828693
0.0828896
0.082905
0.0829155
0.0829214
0.0829235
0.0829228
0.0829204
0.0829176
0.0829152
0.0829138
0.0831609
0.0831688
0.0831842
0.083206
0.0832328
0.0832628
0.0832942
0.083325
0.0833537
0.0833787
0.0833991
0.0834146
0.0834249
0.0834306
0.0834325
0.0834315
0.083429
0.0834259
0.0834233
0.0834218
0.0370362
0.0365838
0.0361817
0.035955
0.0357683
0.0356346
0.0355511
0.0354885
0.0354741
0.0354562
0.0354485
0.0354446
0.0354702
0.0355498
0.0356605
0.0357829
0.0359447
0.0361776
0.0365634
0.0370038
0.0369087
0.0357739
0.0351587
0.0350675
0.0348455
0.0346877
0.0346282
0.0345391
0.034594
0.0345566
0.0345386
0.0344993
0.0345052
0.0346277
0.0347696
0.0348533
0.0349874
0.0351633
0.0357373
0.0368175
0.0383093
0.0371573
0.0365204
0.0364396
0.0362356
0.0361269
0.0360834
0.0359697
0.036011
0.0359785
0.0360041
0.0359611
0.03594
0.0360409
0.0361812
0.0362974
0.0364187
0.0365415
0.0371015
0.0382942
0.0415268
0.0411282
0.0407634
0.040586
0.0404547
0.0404075
0.0403582
0.0402735
0.0402427
0.0402363
0.0402893
0.0402847
0.0402732
0.0403141
0.0404089
0.0405582
0.0406799
0.0408074
0.0411149
0.041626
0.0449474
0.0447943
0.0446209
0.0444949
0.0444001
0.044338
0.044292
0.0442531
0.0442351
0.0442316
0.0442443
0.0442552
0.044275
0.0443184
0.0443863
0.0444751
0.0445743
0.0446943
0.0448608
0.0450318
0.0483233
0.0482572
0.0481688
0.0480895
0.0480251
0.0479775
0.0479435
0.0479205
0.0479098
0.0479092
0.0479178
0.0479325
0.0479565
0.0479939
0.0480449
0.0481083
0.0481817
0.0482655
0.0483564
0.0484272
0.0517027
0.0516715
0.051625
0.0515781
0.0515377
0.0515067
0.051485
0.0514721
0.0514677
0.0514705
0.05148
0.0514956
0.0515181
0.0515488
0.0515878
0.0516341
0.0516861
0.0517411
0.051793
0.0518275
0.0550991
0.0550839
0.0550599
0.0550342
0.0550115
0.0549944
0.0549835
0.0549789
0.05498
0.0549863
0.0549973
0.0550127
0.0550328
0.0550578
0.0550875
0.0551211
0.0551572
0.055193
0.0552239
0.0552426
0.0585059
0.0584991
0.058488
0.0584762
0.0584664
0.0584603
0.0584583
0.0584606
0.0584667
0.0584762
0.0584886
0.0585037
0.0585215
0.0585418
0.0585644
0.0585887
0.0586135
0.0586368
0.0586557
0.0586666
0.0619015
0.0618994
0.0618964
0.061894
0.0618936
0.0618959
0.0619013
0.0619095
0.0619199
0.0619323
0.061946
0.0619609
0.0619767
0.0619933
0.0620106
0.062028
0.0620449
0.06206
0.0620718
0.0620783
0.0652512
0.0652521
0.0652543
0.0652585
0.0652651
0.0652742
0.0652855
0.0652986
0.0653129
0.0653278
0.0653428
0.0653576
0.0653719
0.0653857
0.0653989
0.0654113
0.0654226
0.0654323
0.0654395
0.0654434
0.0685098
0.0685127
0.0685187
0.0685277
0.0685396
0.068554
0.0685703
0.0685876
0.0686052
0.0686224
0.0686386
0.0686534
0.0686667
0.0686783
0.0686885
0.0686972
0.0687045
0.0687104
0.0687145
0.0687167
0.0716241
0.0716286
0.0716373
0.0716501
0.0716662
0.0716849
0.0717052
0.0717262
0.0717467
0.0717659
0.0717833
0.0717982
0.0718107
0.0718207
0.0718285
0.0718344
0.0718388
0.071842
0.071844
0.0718451
0.0745355
0.0745411
0.074552
0.0745677
0.0745873
0.0746096
0.0746334
0.0746574
0.0746805
0.0747015
0.0747199
0.074735
0.0747469
0.0747556
0.0747616
0.0747654
0.0747676
0.0747687
0.0747692
0.0747694
0.0771824
0.0771889
0.0772016
0.0772197
0.0772421
0.0772674
0.0772942
0.0773209
0.0773461
0.0773688
0.077388
0.0774034
0.0774148
0.0774226
0.0774271
0.0774292
0.0774296
0.0774291
0.0774285
0.077428
0.0795038
0.0795111
0.0795252
0.0795452
0.0795699
0.0795978
0.079627
0.0796559
0.079683
0.079707
0.079727
0.0797426
0.0797537
0.0797606
0.079764
0.0797647
0.0797637
0.079762
0.0797604
0.0797595
0.081442
0.0814498
0.081465
0.0814867
0.0815132
0.0815431
0.0815742
0.081605
0.0816335
0.0816586
0.0816793
0.0816951
0.0817059
0.0817122
0.0817146
0.0817142
0.0817121
0.0817095
0.0817072
0.0817059
0.0829458
0.082954
0.0829701
0.0829929
0.0830209
0.0830523
0.0830849
0.083117
0.0831467
0.0831727
0.0831938
0.0832097
0.0832203
0.0832261
0.0832278
0.0832266
0.0832237
0.0832203
0.0832174
0.0832158
0.0839736
0.0839821
0.0839988
0.0840224
0.0840513
0.0840836
0.0841173
0.0841503
0.0841808
0.0842073
0.0842287
0.0842447
0.0842551
0.0842605
0.0842618
0.08426
0.0842565
0.0842526
0.0842494
0.0842476
0.0844955
0.0845042
0.0845212
0.0845452
0.0845746
0.0846074
0.0846416
0.084675
0.0847059
0.0847326
0.0847542
0.0847702
0.0847806
0.0847858
0.0847868
0.0847847
0.0847809
0.0847768
0.0847734
0.0847715
0.0385894
0.0381708
0.0377898
0.0375777
0.0374126
0.0373067
0.0372348
0.037168
0.0371475
0.0371349
0.037144
0.0371417
0.0371565
0.0372225
0.0373274
0.0374551
0.0376039
0.0378061
0.0381641
0.038603
0.0384036
0.037369
0.0367406
0.0366249
0.0364331
0.036363
0.036322
0.03619
0.0362028
0.0361772
0.0362402
0.0362012
0.0361625
0.0362391
0.036376
0.036534
0.0366594
0.0367631
0.0372892
0.038453
0.039895
0.038819
0.0382218
0.0381487
0.0379633
0.0378627
0.0378233
0.0377211
0.0377622
0.0377337
0.0377561
0.0377163
0.0376985
0.0377948
0.037926
0.0380309
0.0381403
0.0382555
0.0387845
0.0398955
0.0430727
0.0425879
0.042286
0.0421838
0.0420484
0.0419198
0.0418647
0.041841
0.0418694
0.0418534
0.0418134
0.0418081
0.0418467
0.0419356
0.0420235
0.0420642
0.0421675
0.0423402
0.0426604
0.0430503
0.0463762
0.0462167
0.0460621
0.045958
0.0458694
0.0457993
0.045756
0.0457314
0.0457266
0.0457223
0.0457204
0.0457303
0.0457586
0.045809
0.045871
0.0459367
0.0460247
0.0461435
0.0463019
0.0464483
0.0497104
0.0496472
0.0495677
0.0494984
0.0494404
0.0493959
0.0493659
0.0493484
0.0493423
0.0493428
0.0493495
0.0493641
0.0493892
0.0494263
0.0494735
0.049529
0.0495955
0.0496734
0.0497574
0.0498206
0.0530917
0.0530633
0.053022
0.052981
0.0529457
0.0529187
0.0529008
0.0528914
0.0528897
0.0528941
0.0529039
0.0529196
0.0529419
0.0529715
0.0530078
0.05305
0.0530975
0.053148
0.0531954
0.0532266
0.056527
0.0565138
0.0564931
0.0564714
0.0564528
0.0564393
0.0564317
0.0564299
0.0564333
0.0564412
0.0564531
0.0564688
0.0564885
0.0565125
0.0565403
0.0565714
0.0566044
0.0566372
0.0566653
0.0566823
0.0600047
0.0599992
0.0599905
0.0599818
0.0599753
0.0599724
0.0599735
0.0599784
0.0599868
0.0599979
0.0600113
0.0600268
0.0600444
0.0600639
0.0600851
0.0601076
0.0601302
0.0601515
0.0601686
0.0601784
0.0634971
0.063496
0.063495
0.0634952
0.0634978
0.0635032
0.0635115
0.0635223
0.0635351
0.0635492
0.0635641
0.0635795
0.0635952
0.0636112
0.0636274
0.0636434
0.0636586
0.0636722
0.0636827
0.0636885
0.0669636
0.0669655
0.0669696
0.0669763
0.0669858
0.0669979
0.0670123
0.0670282
0.0670449
0.0670617
0.067078
0.0670934
0.0671078
0.0671211
0.0671334
0.0671445
0.0671544
0.0671628
0.0671689
0.0671722
0.0703534
0.0703574
0.0703652
0.0703768
0.0703918
0.0704094
0.0704289
0.0704493
0.0704696
0.0704889
0.0705065
0.0705221
0.0705354
0.0705466
0.0705558
0.0705633
0.0705693
0.0705739
0.0705771
0.0705788
0.0736074
0.0736129
0.0736237
0.0736392
0.0736587
0.073681
0.0737049
0.0737292
0.0737526
0.0737742
0.0737931
0.0738089
0.0738215
0.073831
0.0738378
0.0738424
0.0738454
0.0738473
0.0738483
0.0738488
0.0766608
0.0766676
0.0766807
0.0766994
0.0767227
0.076749
0.0767768
0.0768045
0.0768308
0.0768544
0.0768745
0.0768906
0.0769026
0.0769107
0.0769156
0.0769179
0.0769185
0.0769182
0.0769176
0.0769172
0.0794458
0.0794536
0.0794687
0.0794902
0.0795167
0.0795464
0.0795776
0.0796084
0.0796371
0.0796626
0.0796837
0.0797001
0.0797116
0.0797186
0.0797219
0.0797223
0.0797209
0.0797188
0.079717
0.0797159
0.081895
0.0819037
0.0819205
0.0819442
0.0819734
0.082006
0.0820401
0.0820734
0.0821044
0.0821314
0.0821535
0.0821701
0.0821812
0.0821873
0.0821892
0.082188
0.082185
0.0821815
0.0821786
0.0821769
0.0839445
0.0839539
0.083972
0.0839977
0.084029
0.0840641
0.0841004
0.084136
0.0841687
0.084197
0.0842198
0.0842366
0.0842474
0.0842527
0.0842535
0.084251
0.0842467
0.084242
0.0842382
0.0842361
0.0855376
0.0855475
0.0855666
0.0855937
0.0856268
0.0856636
0.0857018
0.085739
0.085773
0.0858023
0.0858257
0.0858427
0.0858532
0.0858579
0.0858578
0.0858543
0.0858489
0.0858434
0.0858389
0.0858364
0.0866278
0.086638
0.0866578
0.0866859
0.0867201
0.0867582
0.0867976
0.0868359
0.0868708
0.0869008
0.0869246
0.0869416
0.0869519
0.0869562
0.0869554
0.0869512
0.0869452
0.086939
0.0869341
0.0869314
0.0871818
0.0871923
0.0872124
0.087241
0.0872758
0.0873145
0.0873545
0.0873933
0.0874287
0.087459
0.087483
0.0875
0.0875102
0.0875142
0.0875132
0.0875086
0.0875023
0.0874957
0.0874906
0.0874878
0.0413049
0.0410751
0.0408259
0.0406507
0.0405192
0.0404287
0.0403655
0.0403171
0.0402955
0.040287
0.0402922
0.0403
0.0403233
0.0403787
0.0404631
0.0405693
0.0406984
0.0408689
0.0411102
0.0413475
0.0416994
0.041331
0.0410137
0.040851
0.0407192
0.0406364
0.0405804
0.0405238
0.0405099
0.0405013
0.0405139
0.0405135
0.0405261
0.0405839
0.0406743
0.040782
0.040902
0.0410597
0.0413575
0.0417482
0.0430158
0.0425296
0.0421907
0.0420718
0.0419415
0.0418588
0.0418123
0.0417557
0.0417607
0.0417486
0.0417582
0.0417505
0.0417604
0.0418261
0.0419172
0.0420083
0.0421133
0.0422469
0.0425616
0.0430607
0.0455956
0.0453665
0.0451655
0.0450503
0.0449508
0.0448737
0.0448278
0.0447999
0.0447981
0.0447924
0.0447889
0.0447949
0.044822
0.0448776
0.0449459
0.045015
0.0451084
0.0452404
0.0454422
0.0456566
0.0485782
0.048478
0.048366
0.0482797
0.0482088
0.0481544
0.0481192
0.0480995
0.0480939
0.048093
0.0480968
0.0481096
0.0481361
0.0481785
0.0482316
0.0482921
0.0483681
0.0484644
0.0485801
0.0486766
0.0517825
0.0517368
0.051676
0.0516203
0.0515738
0.0515382
0.0515149
0.0515024
0.0514993
0.0515023
0.0515108
0.0515262
0.0515503
0.0515839
0.0516256
0.0516744
0.0517315
0.0517965
0.0518629
0.0519099
0.0551471
0.0551254
0.0550933
0.0550611
0.0550338
0.0550134
0.055001
0.054996
0.0549976
0.0550043
0.0550155
0.0550316
0.0550531
0.0550804
0.055113
0.0551501
0.0551912
0.0552341
0.0552732
0.0552982
0.0586397
0.0586298
0.0586144
0.0585987
0.058586
0.0585779
0.0585751
0.0585773
0.0585839
0.0585941
0.0586073
0.0586235
0.0586427
0.058665
0.0586902
0.0587176
0.0587463
0.0587744
0.058798
0.0588122
0.0622281
0.0622247
0.0622196
0.0622154
0.0622138
0.0622156
0.0622212
0.06223
0.0622415
0.062255
0.06227
0.0622861
0.0623034
0.0623216
0.0623408
0.0623606
0.0623802
0.0623982
0.0624127
0.0624209
0.0658716
0.0658722
0.0658741
0.0658782
0.0658852
0.0658952
0.065908
0.0659227
0.0659388
0.0659555
0.0659721
0.0659883
0.0660039
0.066019
0.0660334
0.0660473
0.0660601
0.0660713
0.0660799
0.0660846
0.0695199
0.0695233
0.0695302
0.0695406
0.0695545
0.0695714
0.0695904
0.0696106
0.0696309
0.0696505
0.0696687
0.0696851
0.0696995
0.069712
0.0697227
0.0697319
0.0697396
0.0697459
0.0697505
0.0697529
0.0731133
0.0731187
0.0731294
0.073145
0.0731647
0.0731874
0.073212
0.073237
0.0732613
0.0732837
0.0733035
0.0733202
0.0733336
0.0733439
0.0733516
0.0733571
0.0733609
0.0733636
0.0733652
0.0733661
0.0765838
0.0765909
0.0766048
0.0766247
0.0766493
0.0766772
0.0767068
0.0767363
0.0767642
0.0767893
0.0768106
0.0768276
0.0768402
0.0768488
0.0768539
0.0768563
0.076857
0.0768567
0.0768561
0.0768558
0.0798574
0.079866
0.0798826
0.0799063
0.0799353
0.0799679
0.080002
0.0800355
0.0800668
0.0800943
0.080117
0.0801344
0.0801464
0.0801535
0.0801563
0.0801562
0.0801541
0.0801514
0.080149
0.0801476
0.082857
0.0828668
0.0828859
0.0829128
0.0829457
0.0829824
0.0830205
0.0830578
0.0830921
0.0831218
0.0831458
0.0831636
0.083175
0.0831807
0.0831817
0.0831792
0.0831748
0.08317
0.0831661
0.0831639
0.0855052
0.0855161
0.0855372
0.0855669
0.0856032
0.0856436
0.0856852
0.0857257
0.0857627
0.0857943
0.0858195
0.0858375
0.0858484
0.085853
0.0858522
0.0858478
0.0858414
0.0858348
0.0858295
0.0858266
0.0877284
0.0877402
0.087763
0.0877951
0.0878343
0.0878776
0.0879223
0.0879654
0.0880046
0.0880379
0.088064
0.0880822
0.0880927
0.0880962
0.088094
0.0880879
0.0880798
0.0880717
0.0880653
0.0880618
0.0894608
0.0894733
0.0894975
0.0895315
0.0895728
0.0896186
0.0896655
0.0897107
0.0897517
0.0897862
0.089813
0.0898314
0.0898415
0.0898442
0.0898408
0.0898333
0.0898239
0.0898146
0.0898073
0.0898033
0.0906486
0.0906616
0.0906866
0.0907219
0.0907648
0.0908121
0.0908607
0.0909073
0.0909494
0.0909848
0.091012
0.0910305
0.0910403
0.0910424
0.0910382
0.0910298
0.0910194
0.0910093
0.0910014
0.0909971
0.0912529
0.0912662
0.0912917
0.0913276
0.0913713
0.0914194
0.0914688
0.0915161
0.0915588
0.0915946
0.091622
0.0916405
0.0916502
0.091652
0.0916474
0.0916385
0.0916276
0.091617
0.0916088
0.0916043
0.0444448
0.0443294
0.0441835
0.0440603
0.0439635
0.0438927
0.0438425
0.0438079
0.0437905
0.0437852
0.0437904
0.0438036
0.04383
0.0438763
0.0439425
0.044026
0.0441275
0.044252
0.0443975
0.0445158
0.0450376
0.0448933
0.0447317
0.0446113
0.0445172
0.04445
0.0444031
0.0443691
0.0443543
0.04435
0.0443564
0.0443677
0.0443918
0.044438
0.044504
0.0445854
0.0446827
0.0448046
0.0449643
0.0451134
0.0463944
0.0462356
0.0460764
0.0459701
0.0458837
0.0458218
0.0457804
0.0457505
0.0457413
0.0457381
0.0457442
0.0457543
0.0457775
0.0458233
0.0458861
0.0459595
0.0460476
0.0461594
0.046317
0.0464786
0.0485868
0.0484866
0.0483738
0.0482871
0.0482169
0.0481642
0.0481295
0.0481088
0.0481023
0.0481017
0.0481071
0.04812
0.0481454
0.0481868
0.04824
0.048302
0.0483779
0.0484729
0.0485886
0.0486879
0.0513208
0.0512662
0.0511959
0.0511339
0.0510827
0.0510441
0.0510188
0.0510051
0.0510015
0.0510041
0.0510122
0.0510273
0.0510518
0.0510869
0.0511308
0.0511823
0.0512433
0.0513145
0.05139
0.0514457
0.0544232
0.0543947
0.054354
0.0543146
0.0542815
0.0542569
0.0542416
0.0542349
0.0542355
0.0542415
0.0542523
0.0542685
0.0542911
0.0543204
0.0543559
0.0543968
0.0544431
0.054493
0.0545405
0.0545719
0.0577999
0.0577857
0.0577642
0.0577425
0.0577247
0.0577126
0.057707
0.0577073
0.0577129
0.0577224
0.0577355
0.0577521
0.0577725
0.0577969
0.057825
0.0578563
0.0578899
0.0579238
0.0579535
0.0579717
0.0613902
0.0613842
0.0613752
0.0613668
0.0613613
0.06136
0.0613633
0.0613706
0.0613812
0.0613943
0.0614093
0.0614261
0.0614446
0.0614648
0.0614866
0.0615097
0.0615332
0.0615556
0.061574
0.0615848
0.065142
0.0651411
0.0651406
0.0651421
0.0651467
0.0651547
0.0651659
0.0651798
0.0651955
0.0652121
0.065229
0.065246
0.0652628
0.0652794
0.065296
0.0653124
0.0653281
0.0653423
0.0653534
0.0653597
0.0690004
0.0690031
0.0690088
0.0690181
0.0690309
0.0690469
0.0690655
0.0690856
0.0691062
0.0691262
0.069145
0.0691622
0.0691777
0.0691914
0.0692036
0.0692145
0.0692242
0.0692323
0.0692384
0.0692417
0.0729035
0.0729089
0.0729195
0.0729351
0.072955
0.0729783
0.0730036
0.0730295
0.0730548
0.0730782
0.0730989
0.0731165
0.0731308
0.073142
0.0731505
0.0731569
0.0731617
0.0731652
0.0731676
0.0731689
0.0767807
0.0767883
0.076803
0.0768241
0.0768504
0.0768802
0.0769117
0.0769432
0.076973
0.0769997
0.0770224
0.0770404
0.0770537
0.0770627
0.0770681
0.0770706
0.0770713
0.077071
0.0770705
0.0770702
0.0805529
0.0805624
0.0805808
0.0806069
0.0806389
0.0806748
0.0807122
0.080749
0.0807832
0.0808131
0.0808376
0.0808561
0.0808686
0.0808756
0.080878
0.0808771
0.0808742
0.0808707
0.0808678
0.0808661
0.0841341
0.0841454
0.0841671
0.0841977
0.0842351
0.0842767
0.0843197
0.0843615
0.0843997
0.0844326
0.0844589
0.0844779
0.0844896
0.0844948
0.0844946
0.0844905
0.0844844
0.084478
0.0844728
0.0844699
0.087434
0.0874468
0.0874716
0.0875064
0.0875487
0.0875955
0.0876437
0.0876901
0.0877322
0.0877679
0.0877958
0.0878152
0.0878262
0.0878296
0.0878269
0.0878199
0.0878108
0.0878018
0.0877946
0.0877907
0.0903614
0.0903757
0.0904031
0.0904417
0.0904885
0.09054
0.0905928
0.0906434
0.0906889
0.090727
0.0907563
0.0907761
0.0907864
0.0907882
0.0907833
0.0907736
0.0907618
0.0907504
0.0907414
0.0907365
0.0928291
0.0928446
0.0928744
0.0929162
0.0929667
0.0930223
0.093079
0.0931331
0.0931815
0.0932218
0.0932522
0.0932722
0.0932819
0.0932823
0.0932753
0.0932634
0.0932492
0.0932357
0.0932251
0.0932194
0.0947583
0.0947747
0.0948064
0.0948508
0.0949043
0.0949631
0.0950229
0.0950798
0.0951305
0.0951724
0.0952037
0.0952238
0.0952329
0.0952322
0.0952236
0.0952097
0.0951937
0.0951784
0.0951666
0.0951602
0.0960841
0.0961012
0.0961341
0.0961803
0.0962359
0.0962969
0.0963588
0.0964176
0.0964699
0.0965129
0.0965448
0.096565
0.0965737
0.0965721
0.0965623
0.0965471
0.0965297
0.0965132
0.0965005
0.0964937
0.0967596
0.096777
0.0968106
0.0968577
0.0969144
0.0969765
0.0970395
0.0970993
0.0971524
0.0971959
0.0972281
0.0972483
0.0972567
0.0972547
0.0972443
0.0972284
0.0972103
0.0971931
0.09718
0.0971729
0.0477275
0.0476695
0.0475871
0.0475081
0.047442
0.0473914
0.0473553
0.0473317
0.0473201
0.0473184
0.0473254
0.0473405
0.0473659
0.0474042
0.0474556
0.047519
0.0475936