# vtk DataFile Version 2.0
Pressure 3D1D coupled problem
ASCII
DATASET UNSTRUCTURED_GRID
POINTS 9261 float
0 0 0
0 0 0.1
0 0 0.2
0 0 0.3
0 0 0.4
0 0 0.5
0 0 0.6
0 0 0.7
0 0 0.8
0 0 0.9
0 0 1
0 0 1.1
0 0 1.2
0 0 1.3
0 0 1.4
0 0 1.5
0 0 1.6
0 0 1.7
0 0 1.8
0 0 1.9
0 0 2
0 0.1 0
0 0.1 0.1
0 0.1 0.2
0 0.1 0.3
0 0.1 0.4
0 0.1 0.5
0 0.1 0.6
0 0.1 0.7
0 0.1 0.8
0 0.1 0.9
0 0.1 1
0 0.1 1.1
0 0.1 1.2
0 0.1 1.3
0 0.1 1.4
0 0.1 1.5
0 0.1 1.6
0 0.1 1.7
0 0.1 1.8
0 0.1 1.9
0 0.1 2
0 0.2 0
0 0.2 0.1
0 0.2 0.2
0 0.2 0.3
0 0.2 0.4
0 0.2 0.5
0 0.2 0.6
0 0.2 0.7
0 0.2 0.8
0 0.2 0.9
0 0.2 1
0 0.2 1.1
0 0.2 1.2
0 0.2 1.3
0 0.2 1.4
0 0.2 1.5
0 0.2 1.6
0 0.2 1.7
0 0.2 1.8
0 0.2 1.9
0 0.2 2
0 0.3 0
0 0.3 0.1
0 0.3 0.2
0 0.3 0.3
0 0.3 0.4
0 0.3 0.5
0 0.3 0.6
0 0.3 0.7
0 0.3 0.8
0 0.3 0.9
0 0.3 1
0 0.3 1.1
0 0.3 1.2
0 0.3 1.3
0 0.3 1.4
0 0.3 1.5
0 0.3 1.6
0 0.3 1.7
0 0.3 1.8
0 0.3 1.9
0 0.3 2
0 0.4 0
0 0.4 0.1
0 0.4 0.2
0 0.4 0.3
0 0.4 0.4
0 0.4 0.5
0 0.4 0.6
0 0.4 0.7
0 0.4 0.8
0 0.4 0.9
0 0.4 1
0 0.4 1.1
0 0.4 1.2
0 0.4 1.3
0 0.4 1.4
0 0.4 1.5
0 0.4 1.6
0 0.4 1.7
0 0.4 1.8
0 0.4 1.9
0 0.4 2
0 0.5 0
0 0.5 0.1
0 0.5 0.2
0 0.5 0.3
0 0.5 0.4
0 0.5 0.5
0 0.5 0.6
0 0.5 0.7
0 0.5 0.8
0 0.5 0.9
0 0.5 1
0 0.5 1.1
0 0.5 1.2
0 0.5 1.3
0 0.5 1.4
0 0.5 1.5
0 0.5 1.6
0 0.5 1.7
0 0.5 1.8
0 0.5 1.9
0 0.5 2
0 0.6 0
0 0.6 0.1
0 0.6 0.2
0 0.6 0.3
0 0.6 0.4
0 0.6 0.5
0 0.6 0.6
0 0.6 0.7
0 0.6 0.8
0 0.6 0.9
0 0.6 1
0 0.6 1.1
0 0.6 1.2
0 0.6 1.3
0 0.6 1.4
0 0.6 1.5
0 0.6 1.6
0 0.6 1.7
0 0.6 1.8
0 0.6 1.9
0 0.6 2
0 0.7 0
0 0.7 0.1
0 0.7 0.2
0 0.7 0.3
0 0.7 0.4
0 0.7 0.5
0 0.7 0.6
0 0.7 0.7
0 0.7 0.8
0 0.7 0.9
0 0.7 1
0 0.7 1.1
0 0.7 1.2
0 0.7 1.3
0 0.7 1.4
0 0.7 1.5
0 0.7 1.6
0 0.7 1.7
0 0.7 1.8
0 0.7 1.9
0 0.7 2
0 0.8 0
0 0.8 0.1
0 0.8 0.2
0 0.8 0.3
0 0.8 0.4
0 0.8 0.5
0 0.8 0.6
0 0.8 0.7
0 0.8 0.8
0 0.8 0.9
0 0.8 1
0 0.8 1.1
0 0.8 1.2
0 0.8 1.3
0 0.8 1.4
0 0.8 1.5
0 0.8 1.6
0 0.8 1.7
0 0.8 1.8
0 0.8 1.9
0 0.8 2
0 0.9 0
0 0.9 0.1
0 0.9 0.2
0 0.9 0.3
0 0.9 0.4
0 0.9 0.5
0 0.9 0.6
0 0.9 0.7
0 0.9 0.8
0 0.9 0.9
0 0.9 1
0 0.9 1.1
0 0.9 1.2
0 0.9 1.3
0 0.9 1.4
0 0.9 1.5
0 0.9 1.6
0 0.9 1.7
0 0.9 1.8
0 0.9 1.9
0 0.9 2
0 1 0
0 1 0.1
0 1 0.2
0 1 0.3
0 1 0.4
0 1 0.5
0 1 0.6
0 1 0.7
0 1 0.8
0 1 0.9
0 1 1
0 1 1.1
0 1 1.2
0 1 1.3
0 1 1.4
0 1 1.5
0 1 1.6
0 1 1.7
0 1 1.8
0 1 1.9
0 1 2
0 1.1 0
0 1.1 0.1
0 1.1 0.2
0 1.1 0.3
0 1.1 0.4
0 1.1 0.5
0 1.1 0.6
0 1.1 0.7
0 1.1 0.8
0 1.1 0.9
0 1.1 1
0 1.1 1.1
0 1.1 1.2
0 1.1 1.3
0 1.1 1.4
0 1.1 1.5
0 1.1 1.6
0 1.1 1.7
0 1.1 1.8
0 1.1 1.9
0 1.1 2
0 1.2 0
0 1.2 0.1
0 1.2 0.2
0 1.2 0.3
0 1.2 0.4
0 1.2 0.5
0 1.2 0.6
0 1.2 0.7
0 1.2 0.8
0 1.2 0.9
0 1.2 1
0 1.2 1.1
0 1.2 1.2
0 1.2 1.3
0 1.2 1.4
0 1.2 1.5
0 1.2 1.6
0 1.2 1.7
0 1.2 1.8
0 1.2 1.9
0 1.2 2
0 1.3 0
0 1.3 0.1
0 1.3 0.2
0 1.3 0.3
0 1.3 0.4
0 1.3 0.5
0 1.3 0.6
0 1.3 0.7
0 1.3 0.8
0 1.3 0.9
0 1.3 1
0 1.3 1.1
0 1.3 1.2
0 1.3 1.3
0 1.3 1.4
0 1.3 1.5
0 1.3 1.6
0 1.3 1.7
0 1.3 1.8
0 1.3 1.9
0 1.3 2
0 1.4 0
0 1.4 0.1
0 1.4 0.2
0 1.4 0.3
0 1.4 0.4
0 1.4 0.5
0 1.4 0.6
0 1.4 0.7
0 1.4 0.8
0 1.4 0.9
0 1.4 1
0 1.4 1.1
0 1.4 1.2
0 1.4 1.3
0 1.4 1.4
0 1.4 1.5
0 1.4 1.6
0 1.4 1.7
0 1.4 1.8
0 1.4 1.9
0 1.4 2
0 1.5 0
0 1.5 0.1
0 1.5 0.2
0 1.5 0.3
0 1.5 0.4
0 1.5 0.5
0 1.5 0.6
0 1.5 0.7
0 1.5 0.8
0 1.5 0.9
0 1.5 1
0 1.5 1.1
0 1.5 1.2
0 1.5 1.3
0 1.5 1.4
0 1.5 1.5
0 1.5 1.6
0 1.5 1.7
0 1.5 1.8
0 1.5 1.9
0 1.5 2
0 1.6 0
0 1.6 0.1
0 1.6 0.2
0 1.6 0.3
0 1.6 0.4
0 1.6 0.5
0 1.6 0.6
0 1.6 0.7
0 1.6 0.8
0 1.6 0.9
0 1.6 1
0 1.6 1.1
0 1.6 1.2
0 1.6 1.3
0 1.6 1.4
0 1.6 1.5
0 1.6 1.6
0 1.6 1.7
0 1.6 1.8
0 1.6 1.9
0 1.6 2
0 1.7 0
0 1.7 0.1
0 1.7 0.2
0 1.7 0.3
0 1.7 0.4
0 1.7 0.5
0 1.7 0.6
0 1.7 0.7
0 1.7 0.8
0 1.7 0.9
0 1.7 1
0 1.7 1.1
0 1.7 1.2
0 1.7 1.3
0 1.7 1.4
0 1.7 1.5
0 1.7 1.6
0 1.7 1.7
0 1.7 1.8
0 1.7 1.9
0 1.7 2
0 1.8 0
0 1.8 0.1
0 1.8 0.2
0 1.8 0.3
0 1.8 0.4
0 1.8 0.5
0 1.8 0.6
0 1.8 0.7
0 1.8 0.8
0 1.8 0.9
0 1.8 1
0 1.8 1.1
0 1.8 1.2
0 1.8 1.3
0 1.8 1.4
0 1.8 1.5
0 1.8 1.6
0 1.8 1.7
0 1.8 1.8
0 1.8 1.9
0 1.8 2
0 1.9 0
0 1.9 0.1
0 1.9 0.2
0 1.9 0.3
0 1.9 0.4
0 1.9 0.5
0 1.9 0.6
0 1.9 0.7
0 1.9 0.8
0 1.9 0.9
0 1.9 1
0 1.9 1.1
0 1.9 1.2
0 1.9 1.3
0 1.9 1.4
0 1.9 1.5
0 1.9 1.6
0 1.9 1.7
0 1.9 1.8
0 1.9 1.9
0 1.9 2
0 2 0
0 2 0.1
0 2 0.2
0 2 0.3
0 2 0.4
0 2 0.5
0 2 0.6
0 2 0.7
0 2 0.8
0 2 0.9
0 2 1
0 2 1.1
0 2 1.2
0 2 1.3
0 2 1.4
0 2 1.5
0 2 1.6
0 2 1.7
0 2 1.8
0 2 1.9
0 2 2
0.1 0 0
0.1 0 0.1
0.1 0 0.2
0.1 0 0.3
0.1 0 0.4
0.1 0 0.5
0.1 0 0.6
0.1 0 0.7
0.1 0 0.8
0.1 0 0.9
0.1 0 1
0.1 0 1.1
0.1 0 1.2
0.1 0 1.3
0.1 0 1.4
0.1 0 1.5
0.1 0 1.6
0.1 0 1.7
0.1 0 1.8
0.1 0 1.9
0.1 0 2
0.1 0.1 0
0.1 0.1 0.1
0.1 0.1 0.2
0.1 0.1 0.3
0.1 0.1 0.4
0.1 0.1 0.5
0.1 0.1 0.6
0.1 0.1 0.7
0.1 0.1 0.8
0.1 0.1 0.9
0.1 0.1 1
0.1 0.1 1.1
0.1 0.1 1.2
0.1 0.1 1.3
0.1 0.1 1.4
0.1 0.1 1.5
0.1 0.1 1.6
0.1 0.1 1.7
0.1 0.1 1.8
0.1 0.1 1.9
0.1 0.1 2
0.1 0.2 0
0.1 0.2 0.1
0.1 0.2 0.2
0.1 0.2 0.3
0.1 0.2 0.4
0.1 0.2 0.5
0.1 0.2 0.6
0.1 0.2 0.7
0.1 0.2 0.8
0.1 0.2 0.9
0.1 0.2 1
0.1 0.2 1.1
0.1 0.2 1.2
0.1 0.2 1.3
0.1 0.2 1.4
0.1 0.2 1.5
0.1 0.2 1.6
0.1 0.2 1.7
0.1 0.2 1.8
0.1 0.2 1.9
0.1 0.2 2
0.1 0.3 0
0.1 0.3 0.1
0.1 0.3 0.2
0.1 0.3 0.3
0.1 0.3 0.4
0.1 0.3 0.5
0.1 0.3 0.6
0.1 0.3 0.7
0.1 0.3 0.8
0.1 0.3 0.9
0.1 0.3 1
0.1 0.3 1.1
0.1 0.3 1.2
0.1 0.3 1.3
0.1 0.3 1.4
0.1 0.3 1.5
0.1 0.3 1.6
0.1 0.3 1.7
0.1 0.3 1.8
0.1 0.3 1.9
0.1 0.3 2
0.1 0.4 0
0.1 0.4 0.1
0.1 0.4 0.2
0.1 0.4 0.3
0.1 0.4 0.4
0.1 0.4 0.5
0.1 0.4 0.6
0.1 0.4 0.7
0.1 0.4 0.8
0.1 0.4 0.9
0.1 0.4 1
0.1 0.4 1.1
0.1 0.4 1.2
0.1 0.4 1.3
0.1 0.4 1.4
0.1 0.4 1.5
0.1 0.4 1.6
0.1 0.4 1.7
0.1 0.4 1.8
0.1 0.4 1.9
0.1 0.4 2
0.1 0.5 0
0.1 0.5 0.1
0.1 0.5 0.2
0.1 0.5 0.3
0.1 0.5 0.4
0.1 0.5 0.5
0.1 0.5 0.6
0.1 0.5 0.7
0.1 0.5 0.8
0.1 0.5 0.9
0.1 0.5 1
0.1 0.5 1.1
0.1 0.5 1.2
0.1 0.5 1.3
0.1 0.5 1.4
0.1 0.5 1.5
0.1 0.5 1.6
0.1 0.5 1.7
0.1 0.5 1.8
0.1 0.5 1.9
0.1 0.5 2
0.1 0.6 0
0.1 0.6 0.1
0.1 0.6 0.2
0.1 0.6 0.3
0.1 0.6 0.4
0.1 0.6 0.5
0.1 0.6 0.6
0.1 0.6 0.7
0.1 0.6 0.8
0.1 0.6 0.9
0.1 0.6 1
0.1 0.6 1.1
0.1 0.6 1.2
0.1 0.6 1.3
0.1 0.6 1.4
0.1 0.6 1.5
0.1 0.6 1.6
0.1 0.6 1.7
0.1 0.6 1.8
0.1 0.6 1.9
0.1 0.6 2
0.1 0.7 0
0.1 0.7 0.1
0.1 0.7 0.2
0.1 0.7 0.3
0.1 0.7 0.4
0.1 0.7 0.5
0.1 0.7 0.6
0.1 0.7 0.7
0.1 0.7 0.8
0.1 0.7 0.9
0.1 0.7 1
0.1 0.7 1.1
0.1 0.7 1.2
0.1 0.7 1.3
0.1 0.7 1.4
0.1 0.7 1.5
0.1 0.7 1.6
0.1 0.7 1.7
0.1 0.7 1.8
0.1 0.7 1.9
0.1 0.7 2
0.1 0.8 0
0.1 0.8 0.1
0.1 0.8 0.2
0.1 0.8 0.3
0.1 0.8 0.4
0.1 0.8 0.5
0.1 0.8 0.6
0.1 0.8 0.7
0.1 0.8 0.8
0.1 0.8 0.9
0.1 0.8 1
0.1 0.8 1.1
0.1 0.8 1.2
0.1 0.8 1.3
0.1 0.8 1.4
0.1 0.8 1.5
0.1 0.8 1.6
0.1 0.8 1.7
0.1 0.8 1.8
0.1 0.8 1.9
0.1 0.8 2
0.1 0.9 0
0.1 0.9 0.1
0.1 0.9 0.2
0.1 0.9 0.3
0.1 0.9 0.4
0.1 0.9 0.5
0.1 0.9 0.6
0.1 0.9 0.7
0.1 0.9 0.8
0.1 0.9 0.9
0.1 0.9 1
0.1 0.9 1.1
0.1 0.9 1.2
0.1 0.9 1.3
0.1 0.9 1.4
0.1 0.9 1.5
0.1 0.9 1.6
0.1 0.9 1.7
0.1 0.9 1.8
0.1 0.9 1.9
0.1 0.9 2
0.1 1 0
0.1 1 0.1
0.1 1 0.2
0.1 1 0.3
0.1 1 0.4
0.1 1 0.5
0.1 1 0.6
0.1 1 0.7
0.1 1 0.8
0.1 1 0.9
0.1 1 1
0.1 1 1.1
0.1 1 1.2
0.1 1 1.3
0.1 1 1.4
0.1 1 1.5
0.1 1 1.6
0.1 1 1.7
0.1 1 1.8
0.1 1 1.9
0.1 1 2
0.1 1.1 0
0.1 1.1 0.1
0.1 1.1 0.2
0.1 1.1 0.3
0.1 1.1 0.4
0.1 1.1 0.5
0.1 1.1 0.6
0.1 1.1 0.7
0.1 1.1 0.8
0.1 1.1 0.9
0.1 1.1 1
0.1 1.1 1.1
0.1 1.1 1.2
0.1 1.1 1.3
0.1 1.1 1.4
0.1 1.1 1.5
0.1 1.1 1.6
0.1 1.1 1.7
0.1 1.1 1.8
0.1 1.1 1.9
0.1 1.1 2
0.1 1.2 0
0.1 1.2 0.1
0.1 1.2 0.2
0.1 1.2 0.3
0.1 1.2 0.4
0.1 1.2 0.5
0.1 1.2 0.6
0.1 1.2 0.7
0.1 1.2 0.8
0.1 1.2 0.9
0.1 1.2 1
0.1 1.2 1.1
0.1 1.2 1.2
0.1 1.2 1.3
0.1 1.2 1.4
0.1 1.2 1.5
0.1 1.2 1.6
0.1 1.2 1.7
0.1 1.2 1.8
0.1 1.2 1.9
0.1 1.2 2
0.1 1.3 0
0.1 1.3 0.1
0.1 1.3 0.2
0.1 1.3 0.3
0.1 1.3 0.4
0.1 1.3 0.5
0.1 1.3 0.6
0.1 1.3 0.7
0.1 1.3 0.8
0.1 1.3 0.9
0.1 1.3 1
0.1 1.3 1.1
0.1 1.3 1.2
0.1 1.3 1.3
0.1 1.3 1.4
0.1 1.3 1.5
0.1 1.3 1.6
0.1 1.3 1.7
0.1 1.3 1.8
0.1 1.3 1.9
0.1 1.3 2
0.1 1.4 0
0.1 1.4 0.1
0.1 1.4 0.2
0.1 1.4 0.3
0.1 1.4 0.4
0.1 1.4 0.5
0.1 1.4 0.6
0.1 1.4 0.7
0.1 1.4 0.8
0.1 1.4 0.9
0.1 1.4 1
0.1 1.4 1.1
0.1 1.4 1.2
0.1 1.4 1.3
0.1 1.4 1.4
0.1 1.4 1.5
0.1 1.4 1.6
0.1 1.4 1.7
0.1 1.4 1.8
0.1 1.4 1.9
0.1 1.4 2
0.1 1.5 0
0.1 1.5 0.1
0.1 1.5 0.2
0.1 1.5 0.3
0.1 1.5 0.4
0.1 1.5 0.5
0.1 1.5 0.6
0.1 1.5 0.7
0.1 1.5 0.8
0.1 1.5 0.9
0.1 1.5 1
0.1 1.5 1.1
0.1 1.5 1.2
0.1 1.5 1.3
0.1 1.5 1.4
0.1 1.5 1.5
0.1 1.5 1.6
0.1 1.5 1.7
0.1 1.5 1.8
0.1 1.5 1.9
0.1 1.5 2
0.1 1.6 0
0.1 1.6 0.1
0.1 1.6 0.2
0.1 1.6 0.3
0.1 1.6 0.4
0.1 1.6 0.5
0.1 1.6 0.6
0.1 1.6 0.7
0.1 1.6 0.8
0.1 1.6 0.9
0.1 1.6 1
0.1 1.6 1.1
0.1 1.6 1.2
0.1 1.6 1.3
0.1 1.6 1.4
0.1 1.6 1.5
0.1 1.6 1.6
0.1 1.6 1.7
0.1 1.6 1.8
0.1 1.6 1.9
0.1 1.6 2
0.1 1.7 0
0.1 1.7 0.1
0.1 1.7 0.2
0.1 1.7 0.3
0.1 1.7 0.4
0.1 1.7 0.5
0.1 1.7 0.6
0.1 1.7 0.7
0.1 1.7 0.8
0.1 1.7 0.9
0.1 1.7 1
0.1 1.7 1.1
0.1 1.7 1.2
0.1 1.7 1.3
0.1 1.7 1.4
0.1 1.7 1.5
0.1 1.7 1.6
0.1 1.7 1.7
0.1 1.7 1.8
0.1 1.7 1.9
0.1 1.7 2
0.1 1.8 0
0.1 1.8 0.1
0.1 1.8 0.2
0.1 1.8 0.3
0.1 1.8 0.4
0.1 1.8 0.5
0.1 1.8 0.6
0.1 1.8 0.7
0.1 1.8 0.8
0.1 1.8 0.9
0.1 1.8 1
0.1 1.8 1.1
0.1 1.8 1.2
0.1 1.8 1.3
0.1 1.8 1.4
0.1 1.8 1.5
0.1 1.8 1.6
0.1 1.8 1.7
0.1 1.8 1.8
0.1 1.8 1.9
0.1 1.8 2
0.1 1.9 0
0.1 1.9 0.1
0.1 1.9 0.2
0.1 1.9 0.3
0.1 1.9 0.4
0.1 1.9 0.5
0.1 1.9 0.6
0.1 1.9 0.7
0.1 1.9 0.8
0.1 1.9 0.9
0.1 1.9 1
0.1 1.9 1.1
0.1 1.9 1.2
0.1 1.9 1.3
0.1 1.9 1.4
0.1 1.9 1.5
0.1 1.9 1.6
0.1 1.9 1.7
0.1 1.9 1.8
0.1 1.9 1.9
0.1 1.9 2
0.1 2 0
0.1 2 0.1
0.1 2 0.2
0.1 2 0.3
0.1 2 0.4
0.1 2 0.5
0.1 2 0.6
0.1 2 0.7
0.1 2 0.8
0.1 2 0.9
0.1 2 1
0.1 2 1.1
0.1 2 1.2
0.1 2 1.3
0.1 2 1.4
0.1 2 1.5
0.1 2 1.6
0.1 2 1.7
0.1 2 1.8
0.1 2 1.9
0.1 2 2
0.2 0 0
0.2 0 0.1
0.2 0 0.2
0.2 0 0.3
0.2 0 0.4
0.2 0 0.5
0.2 0 0.6
0.2 0 0.7
0.2 0 0.8
0.2 0 0.9
0.2 0 1
0.2 0 1.1
0.2 0 1.2
0.2 0 1.3
0.2 0 1.4
0.2 0 1.5
0.2 0 1.6
0.2 0 1.7
0.2 0 1.8
0.2 0 1.9
0.2 0 2
0.2 0.1 0
0.2 0.1 0.1
0.2 0.1 0.2
0.2 0.1 0.3
0.2 0.1 0.4
0.2 0.1 0.5
0.2 0.1 0.6
0.2 0.1 0.7
0.2 0.1 0.8
0.2 0.1 0.9
0.2 0.1 1
0.2 0.1 1.1
0.2 0.1 1.2
0.2 0.1 1.3
0.2 0.1 1.4
0.2 0.1 1.5
0.2 0.1 1.6
0.2 0.1 1.7
0.2 0.1 1.8
0.2 0.1 1.9
0.2 0.1 2
0.2 0.2 0
0.2 0.2 0.1
0.2 0.2 0.2
0.2 0.2 0.3
0.2 0.2 0.4
0.2 0.2 0.5
0.2 0.2 0.6
0.2 0.2 0.7
0.2 0.2 0.8
0.2 0.2 0.9
0.2 0.2 1
0.2 0.2 1.1
0.2 0.2 1.2
0.2 0.2 1.3
0.2 0.2 1.4
0.2 0.2 1.5
0.2 0.2 1.6
0.2 0.2 1.7
0.2 0.2 1.8
0.2 0.2 1.9
[...]
CELL_DATA 8000
SCALARS Phi_sigma_(3D) float 1
LOOKUP_TABLE default
0.149136
0.148093
0.146947
0.146112
0.145464
0.144992
0.144679
0.144475
0.144392
0.144348
0.144345
0.144389
0.144535
0.144826
0.145227
0.145711
0.146337
0.147184
0.148309
0.149329
0.149812
0.148288
0.14693
0.146154
0.14551
0.145043
0.144753
0.144545
0.144506
0.144459
0.14445
0.144466
0.144592
0.144903
0.145318
0.14577
0.146357
0.147181
0.148504
0.149988
0.153421
0.151938
0.150628
0.149912
0.149332
0.148938
0.148685
0.148473
0.148429
0.148396
0.148424
0.148442
0.14854
0.14882
0.149217
0.149667
0.150208
0.150944
0.152205
0.153716
0.160283
0.159462
0.158564
0.157941
0.157482
0.157186
0.156971
0.15679
0.156712
0.156702
0.156765
0.15682
0.156918
0.157136
0.157471
0.1579
0.158382
0.158985
0.159853
0.160756
0.168099
0.167686
0.167158
0.166716
0.166374
0.166132
0.165958
0.165833
0.165775
0.165775
0.165826
0.1659
0.166019
0.166212
0.166484
0.166824
0.167214
0.167672
0.168208
0.168658
0.175761
0.175552
0.175253
0.174966
0.174727
0.174547
0.174419
0.174337
0.174302
0.174313
0.174363
0.174444
0.174565
0.174735
0.174955
0.175219
0.175516
0.175841
0.176165
0.176395
0.182985
0.182876
0.182707
0.18253
0.182374
0.182252
0.182166
0.182117
0.182105
0.182126
0.18218
0.182263
0.182376
0.182523
0.182702
0.182906
0.183128
0.183353
0.183554
0.183682
0.189734
0.189676
0.189581
0.189477
0.189382
0.189307
0.189258
0.189237
0.189243
0.189275
0.189333
0.189414
0.189518
0.189645
0.189791
0.189951
0.190116
0.190274
0.190405
0.190482
0.196033
0.196002
0.195952
0.195894
0.195843
0.195805
0.195785
0.195786
0.195808
0.19585
0.195911
0.19599
0.196086
0.196196
0.196317
0.196443
0.196569
0.196683
0.196772
0.196822
0.201908
0.201894
0.20187
0.201844
0.201823
0.201812
0.201815
0.201834
0.201869
0.201919
0.201983
0.20206
0.202149
0.202245
0.202348
0.202451
0.202549
0.202634
0.202699
0.202734
0.207374
0.207369
0.207362
0.207357
0.207357
0.207367
0.207388
0.20742
0.207466
0.207522
0.207589
0.207665
0.207748
0.207835
0.207923
0.208009
0.208088
0.208155
0.208204
0.20823
0.212426
0.212428
0.212432
0.212441
0.212456
0.212481
0.212515
0.212558
0.212612
0.212674
0.212743
0.212818
0.212897
0.212977
0.213055
0.21313
0.213196
0.213251
0.21329
0.213311
0.217049
0.217055
0.217066
0.217085
0.217111
0.217146
0.21719
0.217243
0.217303
0.217369
0.21744
0.217515
0.217591
0.217666
0.217737
0.217804
0.217861
0.217908
0.217941
0.217958
0.221215
0.221223
0.22124
0.221265
0.221299
0.221343
0.221394
0.221453
0.221518
0.221588
0.221661
0.221735
0.221809
0.221881
0.221948
0.222008
0.22206
0.222101
0.22213
0.222145
0.224888
0.224898
0.224919
0.224949
0.224989
0.225038
0.225096
0.225159
0.225229
0.225301
0.225376
0.22545
0.225523
0.225592
0.225656
0.225712
0.22576
0.225798
0.225824
0.225837
0.228032
0.228043
0.228066
0.2281
0.228144
0.228198
0.228259
0.228327
0.228399
0.228474
0.22855
0.228625
0.228696
0.228764
0.228825
0.228879
0.228924
0.228959
0.228983
0.228995
0.230606
0.230618
0.230643
0.230679
0.230727
0.230783
0.230848
0.230919
0.230993
0.23107
0.231147
0.231221
0.231293
0.231359
0.231418
0.23147
0.231513
0.231546
0.231569
0.231581
0.232575
0.232588
0.232614
0.232652
0.232701
0.23276
0.232827
0.2329
0.232976
0.233054
0.233131
0.233206
0.233277
0.233342
0.2334
0.233451
0.233493
0.233525
0.233547
0.233558
0.233908
0.233921
0.233948
0.233987
0.234038
0.234098
0.234166
0.23424
0.234317
0.234396
0.234474
0.234549
0.234619
0.234684
0.234741
0.234791
0.234832
0.234864
0.234885
0.234896
0.234581
0.234595
0.234622
0.234662
0.234713
0.234774
0.234843
0.234917
0.234995
0.235074
0.235152
0.235227
0.235297
0.235361
0.235419
0.235468
0.235509
0.23554
0.235561
0.235572
0.149923
0.148422
0.147076
0.146303
0.145663
0.145202
0.144914
0.144703
0.14466
0.144614
0.144611
0.144628
0.144751
0.145059
0.145474
0.14593
0.146516
0.147333
0.148643
0.150113
0.148839
0.145106
0.143067
0.142741
0.141989
0.141451
0.141243
0.140948
0.141132
0.141022
0.140984
0.140885
0.140942
0.141388
0.141902
0.142228
0.14272
0.143347
0.14527
0.148834
0.152118
0.148355
0.146257
0.145964
0.145275
0.1449
0.144745
0.144372
0.14451
0.144418
0.144522
0.144412
0.144382
0.144755
0.145261
0.145692
0.146141
0.146593
0.14846
0.152366
0.160646
0.159337
0.158129
0.157526
0.157074
0.156899
0.156726
0.156448
0.156353
0.156347
0.156539
0.156556
0.156559
0.15674
0.157099
0.157636
0.158085
0.158552
0.159593
0.161272
0.169178
0.168668
0.168084
0.167651
0.167321
0.167101
0.16694
0.166811
0.166758
0.166761
0.166826
0.166894
0.166998
0.167186
0.167457
0.167799
0.168173
0.16861
0.169188
0.169764
0.176934
0.17671
0.176406
0.176128
0.175899
0.175729
0.175608
0.175531
0.175502
0.175515
0.175566
0.175647
0.175764
0.175932
0.176147
0.176404
0.176691
0.177006
0.177335
0.177583
0.184101
0.183992
0.183826
0.183657
0.183508
0.183393
0.183313
0.183269
0.183261
0.183285
0.183339
0.183422
0.183534
0.183679
0.183853
0.184052
0.184267
0.184485
0.184683
0.184811
0.190777
0.190721
0.190631
0.190532
0.190442
0.190373
0.190329
0.190311
0.19032
0.190355
0.190413
0.190495
0.190598
0.190723
0.190866
0.191022
0.191183
0.191336
0.191464
0.191539
0.197024
0.196995
0.196947
0.196894
0.196846
0.196813
0.196797
0.196801
0.196825
0.196869
0.196931
0.197011
0.197106
0.197215
0.197334
0.197458
0.197581
0.197692
0.197779
0.197828
0.202871
0.202858
0.202837
0.202813
0.202796
0.202788
0.202794
0.202816
0.202853
0.202905
0.20297
0.203048
0.203136
0.203233
0.203334
0.203435
0.203531
0.203615
0.203678
0.203712
0.208331
0.208327
0.208322
0.208319
0.208322
0.208334
0.208358
0.208393
0.20844
0.208499
0.208567
0.208644
0.208727
0.208814
0.208902
0.208987
0.209065
0.209131
0.209179
0.209204
0.213395
0.213397
0.213402
0.213413
0.213431
0.213458
0.213494
0.21354
0.213596
0.21366
0.21373
0.213806
0.213886
0.213966
0.214044
0.214118
0.214184
0.214238
0.214277
0.214297
0.218041
0.218047
0.218059
0.21808
0.218109
0.218146
0.218192
0.218247
0.218309
0.218378
0.21845
0.218526
0.218603
0.218678
0.21875
0.218816
0.218873
0.21892
0.218952
0.218969
0.222237
0.222246
0.222264
0.222291
0.222328
0.222373
0.222427
0.222489
0.222556
0.222628
0.222703
0.222778
0.222853
0.222925
0.222992
0.223053
0.223104
0.223145
0.223174
0.223189
0.225946
0.225956
0.225978
0.22601
0.226053
0.226104
0.226164
0.226231
0.226302
0.226377
0.226453
0.226529
0.226603
0.226672
0.226736
0.226793
0.22684
0.226878
0.226904
0.226917
0.229124
0.229136
0.229161
0.229197
0.229243
0.229299
0.229364
0.229434
0.229509
0.229586
0.229664
0.22974
0.229813
0.229881
0.229942
0.229996
0.230041
0.230076
0.2301
0.230112
0.231731
0.231744
0.23177
0.231809
0.231859
0.231918
0.231986
0.232059
0.232137
0.232216
0.232294
0.23237
0.232443
0.232509
0.232569
0.232621
0.232664
0.232697
0.23272
0.232732
0.233727
0.233741
0.233768
0.233809
0.233861
0.233923
0.233992
0.234068
0.234147
0.234227
0.234307
0.234383
0.234455
0.234521
0.23458
0.23463
0.234672
0.234704
0.234726
0.234737
0.235079
0.235094
0.235122
0.235163
0.235217
0.23528
0.235351
0.235428
0.235508
0.235589
0.235669
0.235746
0.235817
0.235883
0.235941
0.23599
0.236031
0.236063
0.236084
0.236095
0.235763
0.235777
0.235806
0.235848
0.235902
0.235966
0.236038
0.236116
0.236196
0.236278
0.236358
0.236434
0.236506
0.236571
0.236628
0.236678
0.236718
0.236749
0.23677
0.236781
0.153735
0.152351
0.151079
0.150356
0.14979
0.149422
0.149174
0.14895
0.148888
0.14886
0.148912
0.148935
0.149023
0.149286
0.14968
0.150152
0.150694
0.151408
0.152621
0.154081
0.152428
0.149046
0.146976
0.146569
0.145919
0.14567
0.145523
0.14509
0.145136
0.145066
0.145292
0.145195
0.145108
0.145402
0.145898
0.146465
0.146927
0.147317
0.149074
0.152887
0.155902
0.152412
0.150454
0.150184
0.149559
0.149215
0.149073
0.148739
0.148874
0.148796
0.14889
0.148793
0.148773
0.149129
0.149604
0.149998
0.150407
0.150834
0.15259
0.156207
0.164127
0.162555
0.161553
0.16119
0.160729
0.160298
0.160108
0.160024
0.160117
0.160081
0.159979
0.159993
0.160156
0.160487
0.160823
0.161014
0.161402
0.16201
0.163085
0.16437
0.172078
0.171551
0.17103
0.170668
0.17036
0.170115
0.169964
0.16988
0.169869
0.169869
0.169888
0.169952
0.170084
0.170293
0.170545
0.170811
0.171148
0.171579
0.172128
0.172623
0.179459
0.179245
0.178971
0.178725
0.178518
0.178357
0.178249
0.178189
0.178174
0.17819
0.178236
0.178315
0.178436
0.178603
0.178805
0.179036
0.1793
0.179596
0.1799
0.180123
0.186356
0.186256
0.186107
0.185956
0.185824
0.185721
0.185652
0.185618
0.185617
0.185645
0.1857
0.185783
0.185894
0.186035
0.186202
0.186387
0.186587
0.186791
0.186974
0.187091
0.192849
0.192799
0.192718
0.192631
0.192553
0.192494
0.192458
0.192448
0.192463
0.192501
0.192562
0.192644
0.192746
0.192868
0.193006
0.193154
0.193305
0.193449
0.193567
0.193637
0.198984
0.198959
0.198918
0.198873
0.198834
0.198808
0.198799
0.198809
0.198838
0.198885
0.19895
0.19903
0.199125
0.199232
0.199348
0.199467
0.199584
0.199689
0.199771
0.199816
0.20478
0.204769
0.204752
0.204735
0.204723
0.204722
0.204734
0.204761
0.204802
0.204857
0.204925
0.205004
0.205093
0.205188
0.205287
0.205386
0.205478
0.205558
0.205618
0.20565
0.210232
0.21023
0.210228
0.21023
0.210238
0.210256
0.210284
0.210325
0.210376
0.210438
0.210509
0.210587
0.210671
0.210757
0.210844
0.210928
0.211004
0.211067
0.211113
0.211138
0.215322
0.215326
0.215334
0.215349
0.215372
0.215403
0.215445
0.215495
0.215555
0.215623
0.215696
0.215774
0.215854
0.215935
0.216013
0.216086
0.21615
0.216203
0.21624
0.21626
0.220019
0.220026
0.220042
0.220066
0.220099
0.220141
0.220192
0.220252
0.220318
0.22039
0.220466
0.220544
0.220622
0.220698
0.22077
0.220835
0.220892
0.220937
0.220969
0.220986
0.224281
0.224291
0.224312
0.224343
0.224384
0.224434
0.224493
0.22456
0.224632
0.224708
0.224786
0.224864
0.22494
0.225013
0.22508
0.22514
0.225192
0.225232
0.22526
0.225274
0.228063
0.228075
0.2281
0.228136
0.228183
0.228239
0.228305
0.228376
0.228453
0.228532
0.228612
0.22869
0.228765
0.228836
0.2289
0.228957
0.229004
0.229041
0.229066
0.229079
0.231316
0.231329
0.231356
0.231396
0.231448
0.231509
0.231579
0.231655
0.231735
0.231817
0.231898
0.231977
0.232052
0.232121
0.232183
0.232237
0.232281
0.232315
0.232339
0.232351
0.233991
0.234005
0.234034
0.234077
0.234132
0.234197
0.234271
0.23435
0.234432
0.234516
0.234599
0.234678
0.234752
0.23482
0.23488
0.234932
0.234975
0.235007
0.23503
0.235041
0.236043
0.236058
0.236089
0.236134
0.236191
0.236259
0.236335
0.236416
0.236501
0.236586
0.236669
0.236749
0.236823
0.23689
0.236949
0.236999
0.237041
0.237072
0.237093
0.237104
0.237436
0.237451
0.237483
0.237529
0.237588
0.237657
0.237735
0.237818
0.237904
0.23799
0.238074
0.238153
0.238227
0.238294
0.238352
0.238401
0.238442
0.238472
0.238493
0.238504
0.23814
0.238156
0.238188
0.238235
0.238294
0.238365
0.238443
0.238527
0.238613
0.2387
0.238784
0.238864
0.238937
0.239003
0.239061
0.23911
0.23915
0.23918
0.239201
0.239211
0.160708
0.159944
0.159107
0.158508
0.158054
0.157739
0.15752
0.157358
0.157293
0.157279
0.157319
0.157377
0.157493
0.15772
0.158047
0.158448
0.158924
0.15953
0.160358
0.161156
0.161213
0.160002
0.158946
0.158389
0.157936
0.157647
0.157453
0.157265
0.157224
0.15721
0.157274
0.157305
0.157385
0.15762
0.157965
0.15837
0.158814
0.159377
0.160386
0.16168
0.163957
0.162381
0.161264
0.160849
0.160404
0.160117
0.159954
0.159767
0.159786
0.159762
0.159816
0.159823
0.159895
0.160153
0.160499
0.160848
0.161242
0.161726
0.162783
0.164412
0.170013
0.169262
0.16859
0.168192
0.167847
0.16758
0.167419
0.167325
0.167323
0.167319
0.167332
0.167384
0.167511
0.167737
0.168009
0.168287
0.168642
0.169116
0.169807
0.170521
0.176629
0.176295
0.175914
0.175612
0.175361
0.175167
0.175042
0.174974
0.17496
0.174971
0.175007
0.175081
0.175207
0.17539
0.175613
0.175861
0.176157
0.176513
0.176922
0.177254
0.183233
0.183076
0.182863
0.182662
0.182492
0.182359
0.182272
0.182227
0.182221
0.182244
0.182295
0.182377
0.182494
0.182649
0.182834
0.183042
0.183275
0.183527
0.183774
0.183943
0.189663
0.189584
0.189465
0.189342
0.189234
0.189151
0.189098
0.189076
0.189084
0.189118
0.189177
0.18926
0.189369
0.189503
0.189657
0.189826
0.190006
0.190184
0.19034
0.190437
0.195877
0.195836
0.195772
0.195702
0.195641
0.195596
0.195573
0.195572
0.195595
0.195639
0.195703
0.195785
0.195886
0.196003
0.196133
0.19627
0.196408
0.196537
0.196642
0.196703
0.201859
0.201839
0.201808
0.201774
0.201746
0.201731
0.201732
0.201751
0.201787
0.20184
0.201907
0.201989
0.202083
0.202187
0.202297
0.20241
0.202518
0.202615
0.202689
0.20273
0.207591
0.207584
0.207573
0.207564
0.207561
0.207569
0.20759
0.207624
0.207672
0.207732
0.207803
0.207884
0.207973
0.208066
0.208162
0.208257
0.208344
0.208419
0.208474
0.208504
0.213047
0.213047
0.21305
0.213058
0.213074
0.213099
0.213135
0.213183
0.21324
0.213307
0.213381
0.213462
0.213547
0.213633
0.213718
0.213799
0.213872
0.213932
0.213976
0.213999
0.218189
0.218194
0.218207
0.218227
0.218257
0.218296
0.218344
0.218402
0.218468
0.21854
0.218618
0.218699
0.21878
0.218861
0.218939
0.21901
0.219072
0.219123
0.219159
0.219178
0.222972
0.222981
0.223
0.22303
0.22307
0.223119
0.223178
0.223244
0.223317
0.223395
0.223475
0.223556
0.223636
0.223713
0.223785
0.223849
0.223904
0.223948
0.223979
0.223995
0.227342
0.227355
0.227379
0.227416
0.227463
0.227521
0.227588
0.227662
0.227741
0.227822
0.227905
0.227987
0.228066
0.228139
0.228207
0.228267
0.228317
0.228356
0.228383
0.228397
0.231243
0.231258
0.231286
0.231328
0.231382
0.231447
0.23152
0.2316
0.231683
0.231769
0.231854
0.231936
0.232014
0.232086
0.23215
0.232206
0.232253
0.232288
0.232313
0.232325
0.234615
0.23463
0.234662
0.234708
0.234767
0.234837
0.234916
0.235
0.235088
0.235176
0.235263
0.235346
0.235423
0.235494
0.235556
0.235609
0.235653
0.235686
0.235709
0.23572
0.237398
0.237415
0.237449
0.237498
0.237561
0.237635
0.237718
0.237806
0.237897
0.237988
0.238076
0.238159
0.238236
0.238306
0.238366
0.238417
0.238459
0.23849
0.238511
0.238522
0.239541
0.239559
0.239594
0.239646
0.239711
0.239788
0.239874
0.239965
0.240058
0.240151
0.24024
0.240324
0.2404
0.240469
0.240528
0.240578
0.240618
0.240648
0.240668
0.240679
0.240998
0.241016
0.241053
0.241106
0.241173
0.241252
0.24134
0.241433
0.241527
0.241621
0.241711
0.241795
0.241871
0.241939
0.241998
0.242046
0.242085
0.242115
0.242134
0.242144
0.241736
0.241755
0.241792
0.241846
0.241914
0.241994
0.242082
0.242176
0.242271
0.242365
0.242456
0.24254
0.242616
0.242684
0.242742
0.24279
0.242828
0.242857
0.242877
0.242886
0.168436
0.168048
0.167552
0.167128
0.16679
0.166541
0.166367
0.166251
0.1662
0.166197
0.166238
0.166313
0.166439
0.166637
0.166904
0.167229
0.167611
0.168063
0.168574
0.16898
0.169485
0.169005
0.168459
0.168044
0.167716
0.16748
0.167316
0.167202
0.16716
0.16716
0.167205
0.167274
0.167392
0.167589
0.167855
0.168172
0.16854
0.168983
0.169539
0.170044
0.17215
0.171625
0.17109
0.170722
0.17042
0.170202
0.170056
0.169956
0.169931
0.169935
0.169979
0.170044
0.170159
0.170354
0.170608
0.170899
0.171236
0.171644
0.17219
0.172733
0.176663
0.176328
0.175945
0.175642
0.175393
0.175205
0.175081
0.17501
0.174993
0.175006
0.175046
0.175121
0.175243
0.175423
0.175646
0.175899
0.176195
0.176547
0.176956
0.177296
0.182091
0.181904
0.181659
0.181438
0.181252
0.181109
0.181015
0.180965
0.180958
0.180979
0.181029
0.181109
0.181229
0.181388
0.18158
0.181798
0.182045
0.182317
0.182594
0.182792
0.187896
0.187795
0.187647
0.187499
0.187371
0.187273
0.18721
0.187182
0.187187
0.187218
0.187275
0.187359
0.187471
0.187612
0.187777
0.187959
0.188157
0.188359
0.188543
0.188661
0.193819
0.193764
0.193678
0.193588
0.193508
0.193449
0.193415
0.193408
0.193426
0.193467
0.19353
0.193614
0.19372
0.193844
0.193985
0.194136
0.194291
0.194441
0.194566
0.19464
0.19973
0.199702
0.199656
0.199606
0.199564
0.199537
0.199529
0.199541
0.199573
0.199623
0.199691
0.199775
0.199873
0.199984
0.200105
0.20023
0.200353
0.200465
0.200553
0.200603
0.205556
0.205543
0.205523
0.205503
0.205489
0.205488
0.205501
0.20553
0.205575
0.205633
0.205705
0.205789
0.205882
0.205982
0.206087
0.206191
0.20629
0.206376
0.206442
0.206477
0.211239
0.211236
0.211233
0.211234
0.211243
0.211262
0.211293
0.211337
0.211392
0.211459
0.211534
0.211618
0.211706
0.211798
0.211891
0.21198
0.212061
0.21213
0.21218
0.212207
0.216726
0.21673
0.216739
0.216756
0.216781
0.216816
0.216862
0.216918
0.216984
0.217057
0.217136
0.21722
0.217306
0.217391
0.217475
0.217552
0.217621
0.217678
0.217718
0.217739
0.221961
0.221969
0.221987
0.222015
0.222053
0.222102
0.22216
0.222227
0.222301
0.22238
0.222463
0.222547
0.222631
0.222712
0.222788
0.222858
0.222917
0.222965
0.222999
0.223017
0.226879
0.226891
0.226915
0.226952
0.227001
0.22706
0.227129
0.227205
0.227287
0.227371
0.227457
0.227543
0.227625
0.227702
0.227774
0.227837
0.22789
0.227932
0.227961
0.227976
0.231412
0.231427
0.231457
0.231501
0.231558
0.231626
0.231704
0.231788
0.231876
0.231965
0.232054
0.232141
0.232222
0.232297
0.232364
0.232423
0.232471
0.232508
0.232534
0.232547
0.235487
0.235505
0.235539
0.235589
0.235653
0.235729
0.235814
0.235904
0.235998
0.236092
0.236184
0.236271
0.236352
0.236425
0.236489
0.236544
0.236588
0.236622
0.236645
0.236657
0.239032
0.239051
0.239089
0.239144
0.239214
0.239296
0.239386
0.239482
0.239581
0.239678
0.239772
0.23986
0.239941
0.240013
0.240075
0.240126
0.240168
0.240199
0.24022
0.240231
0.241973
0.241994
0.242034
0.242093
0.242168
0.242255
0.24235
0.242451
0.242553
0.242653
0.242749
0.242838
0.242918
0.242989
0.243049
0.243098
0.243138
0.243167
0.243186
0.243196
0.244247
0.244268
0.244311
0.244373
0.24445
0.244541
0.24464
0.244744
0.244849
0.244952
0.245049
0.245138
0.245218
0.245288
0.245347
0.245394
0.245432
0.245459
0.245478
0.245487
0.245797
0.245819
0.245863
0.245927
0.246007
0.2461
0.246202
0.246308
0.246415
0.246519
0.246617
0.246706
0.246786
0.246855
0.246913
0.246959
0.246996
0.247022
0.247039
0.247048
0.246584
0.246607
0.246651
0.246716
0.246797
0.246891
0.246994
0.247101
0.247209
0.247314
0.247412
0.247502
0.247582
0.24765
0.247707
0.247753
0.247789
0.247815
0.247832
0.24784
0.176012
0.175814
0.175529
0.175252
0.175018
0.174837
0.17471
0.174631
0.174599
0.174609
0.174656
0.174738
0.17486
0.175031
0.175247
0.175504
0.175796
0.176113
0.176424
0.176638
0.177147
0.176933
0.176642
0.176372
0.176147
0.175975
0.175855
0.175782
0.175755
0.175767
0.175816
0.175896
0.176016
0.176184
0.176397
0.176647
0.176929
0.17724
0.177557
0.177789
0.179576
0.179364
0.179091
0.178847
0.178643
0.178488
0.178383
0.17832
0.178303
0.17832
0.17837
0.178449
0.178567
0.17873
0.178932
0.179166
0.179428
0.179717
0.180018
0.180246
0.183296
0.183139
0.182926
0.182727
0.182558
0.182428
0.182342
0.182296
0.182289
0.182313
0.182365
0.182447
0.182563
0.182716
0.182901
0.18311
0.183342
0.183592
0.183837
0.184009
0.187922
0.187821
0.187674
0.187526
0.187399
0.187301
0.187239
0.187211
0.187215
0.187247
0.187304
0.187388
0.1875
0.18764
0.187804
0.187987
0.188184
0.188386
0.18857
0.188688
0.193104
0.193042
0.192948
0.192849
0.192763
0.192698
0.19266
0.192651
0.192667
0.192708
0.19277
0.192855
0.192962
0.193089
0.193233
0.193389
0.193552
0.193709
0.193843
0.193923
0.198599
0.198565
0.198509
0.19845
0.198399
0.198365
0.198351
0.198359
0.198389
0.198438
0.198506
0.198591
0.198692
0.198807
0.198934
0.199066
0.199197
0.199319
0.199417
0.199473
0.204256
0.204238
0.20421
0.204181
0.20416
0.204152
0.20416
0.204185
0.204227
0.204285
0.204357
0.204442
0.204539
0.204644
0.204754
0.204866
0.204974
0.205069
0.205142
0.205183
0.209965
0.209959
0.20995
0.209945
0.209947
0.209961
0.209988
0.210029
0.210083
0.210149
0.210226
0.210311
0.210403
0.2105
0.210598
0.210694
0.210782
0.210858
0.210915
0.210945
0.215642
0.215644
0.21565
0.215662
0.215683
0.215715
0.215759
0.215814
0.215879
0.215953
0.216034
0.21612
0.216209
0.216299
0.216387
0.216471
0.216545
0.216608
0.216652
0.216676
0.221212
0.22122
0.221236
0.221262
0.221298
0.221346
0.221404
0.221471
0.221546
0.221627
0.221712
0.221799
0.221886
0.221971
0.222052
0.222126
0.22219
0.222242
0.222279
0.222298
0.226596
0.226608
0.226633
0.22667
0.226719
0.22678
0.22685
0.226928
0.227012
0.2271
0.227189
0.227278
0.227364
0.227445
0.22752
0.227586
0.227643
0.227687
0.227718
0.227735
0.231713
0.231729