# vtk DataFile Version 2.0
Pressure 3D1D coupled problem
ASCII
DATASET UNSTRUCTURED_GRID
POINTS 9261 float
0 0 0
0 0 0.1
0 0 0.2
0 0 0.3
0 0 0.4
0 0 0.5
0 0 0.6
0 0 0.7
0 0 0.8
0 0 0.9
0 0 1
0 0 1.1
0 0 1.2
0 0 1.3
0 0 1.4
0 0 1.5
0 0 1.6
0 0 1.7
0 0 1.8
0 0 1.9
0 0 2
0 0.1 0
0 0.1 0.1
0 0.1 0.2
0 0.1 0.3
0 0.1 0.4
0 0.1 0.5
0 0.1 0.6
0 0.1 0.7
0 0.1 0.8
0 0.1 0.9
0 0.1 1
0 0.1 1.1
0 0.1 1.2
0 0.1 1.3
0 0.1 1.4
0 0.1 1.5
0 0.1 1.6
0 0.1 1.7
0 0.1 1.8
0 0.1 1.9
0 0.1 2
0 0.2 0
0 0.2 0.1
0 0.2 0.2
0 0.2 0.3
0 0.2 0.4
0 0.2 0.5
0 0.2 0.6
0 0.2 0.7
0 0.2 0.8
0 0.2 0.9
0 0.2 1
0 0.2 1.1
0 0.2 1.2
0 0.2 1.3
0 0.2 1.4
0 0.2 1.5
0 0.2 1.6
0 0.2 1.7
0 0.2 1.8
0 0.2 1.9
0 0.2 2
0 0.3 0
0 0.3 0.1
0 0.3 0.2
0 0.3 0.3
0 0.3 0.4
0 0.3 0.5
0 0.3 0.6
0 0.3 0.7
0 0.3 0.8
0 0.3 0.9
0 0.3 1
0 0.3 1.1
0 0.3 1.2
0 0.3 1.3
0 0.3 1.4
0 0.3 1.5
0 0.3 1.6
0 0.3 1.7
0 0.3 1.8
0 0.3 1.9
0 0.3 2
0 0.4 0
0 0.4 0.1
0 0.4 0.2
0 0.4 0.3
0 0.4 0.4
0 0.4 0.5
0 0.4 0.6
0 0.4 0.7
0 0.4 0.8
0 0.4 0.9
0 0.4 1
0 0.4 1.1
0 0.4 1.2
0 0.4 1.3
0 0.4 1.4
0 0.4 1.5
0 0.4 1.6
0 0.4 1.7
0 0.4 1.8
0 0.4 1.9
0 0.4 2
0 0.5 0
0 0.5 0.1
0 0.5 0.2
0 0.5 0.3
0 0.5 0.4
0 0.5 0.5
0 0.5 0.6
0 0.5 0.7
0 0.5 0.8
0 0.5 0.9
0 0.5 1
0 0.5 1.1
0 0.5 1.2
0 0.5 1.3
0 0.5 1.4
0 0.5 1.5
0 0.5 1.6
0 0.5 1.7
0 0.5 1.8
0 0.5 1.9
0 0.5 2
0 0.6 0
0 0.6 0.1
0 0.6 0.2
0 0.6 0.3
0 0.6 0.4
0 0.6 0.5
0 0.6 0.6
0 0.6 0.7
0 0.6 0.8
0 0.6 0.9
0 0.6 1
0 0.6 1.1
0 0.6 1.2
0 0.6 1.3
0 0.6 1.4
0 0.6 1.5
0 0.6 1.6
0 0.6 1.7
0 0.6 1.8
0 0.6 1.9
0 0.6 2
0 0.7 0
0 0.7 0.1
0 0.7 0.2
0 0.7 0.3
0 0.7 0.4
0 0.7 0.5
0 0.7 0.6
0 0.7 0.7
0 0.7 0.8
0 0.7 0.9
0 0.7 1
0 0.7 1.1
0 0.7 1.2
0 0.7 1.3
0 0.7 1.4
0 0.7 1.5
0 0.7 1.6
0 0.7 1.7
0 0.7 1.8
0 0.7 1.9
0 0.7 2
0 0.8 0
0 0.8 0.1
0 0.8 0.2
0 0.8 0.3
0 0.8 0.4
0 0.8 0.5
0 0.8 0.6
0 0.8 0.7
0 0.8 0.8
0 0.8 0.9
0 0.8 1
0 0.8 1.1
0 0.8 1.2
0 0.8 1.3
0 0.8 1.4
0 0.8 1.5
0 0.8 1.6
0 0.8 1.7
0 0.8 1.8
0 0.8 1.9
0 0.8 2
0 0.9 0
0 0.9 0.1
0 0.9 0.2
0 0.9 0.3
0 0.9 0.4
0 0.9 0.5
0 0.9 0.6
0 0.9 0.7
0 0.9 0.8
0 0.9 0.9
0 0.9 1
0 0.9 1.1
0 0.9 1.2
0 0.9 1.3
0 0.9 1.4
0 0.9 1.5
0 0.9 1.6
0 0.9 1.7
0 0.9 1.8
0 0.9 1.9
0 0.9 2
0 1 0
0 1 0.1
0 1 0.2
0 1 0.3
0 1 0.4
0 1 0.5
0 1 0.6
0 1 0.7
0 1 0.8
0 1 0.9
0 1 1
0 1 1.1
0 1 1.2
0 1 1.3
0 1 1.4
0 1 1.5
0 1 1.6
0 1 1.7
0 1 1.8
0 1 1.9
0 1 2
0 1.1 0
0 1.1 0.1
0 1.1 0.2
0 1.1 0.3
0 1.1 0.4
0 1.1 0.5
0 1.1 0.6
0 1.1 0.7
0 1.1 0.8
0 1.1 0.9
0 1.1 1
0 1.1 1.1
0 1.1 1.2
0 1.1 1.3
0 1.1 1.4
0 1.1 1.5
0 1.1 1.6
0 1.1 1.7
0 1.1 1.8
0 1.1 1.9
0 1.1 2
0 1.2 0
0 1.2 0.1
0 1.2 0.2
0 1.2 0.3
0 1.2 0.4
0 1.2 0.5
0 1.2 0.6
0 1.2 0.7
0 1.2 0.8
0 1.2 0.9
0 1.2 1
0 1.2 1.1
0 1.2 1.2
0 1.2 1.3
0 1.2 1.4
0 1.2 1.5
0 1.2 1.6
0 1.2 1.7
0 1.2 1.8
0 1.2 1.9
0 1.2 2
0 1.3 0
0 1.3 0.1
0 1.3 0.2
0 1.3 0.3
0 1.3 0.4
0 1.3 0.5
0 1.3 0.6
0 1.3 0.7
0 1.3 0.8
0 1.3 0.9
0 1.3 1
0 1.3 1.1
0 1.3 1.2
0 1.3 1.3
0 1.3 1.4
0 1.3 1.5
0 1.3 1.6
0 1.3 1.7
0 1.3 1.8
0 1.3 1.9
0 1.3 2
0 1.4 0
0 1.4 0.1
0 1.4 0.2
0 1.4 0.3
0 1.4 0.4
0 1.4 0.5
0 1.4 0.6
0 1.4 0.7
0 1.4 0.8
0 1.4 0.9
0 1.4 1
0 1.4 1.1
0 1.4 1.2
0 1.4 1.3
0 1.4 1.4
0 1.4 1.5
0 1.4 1.6
0 1.4 1.7
0 1.4 1.8
0 1.4 1.9
0 1.4 2
0 1.5 0
0 1.5 0.1
0 1.5 0.2
0 1.5 0.3
0 1.5 0.4
0 1.5 0.5
0 1.5 0.6
0 1.5 0.7
0 1.5 0.8
0 1.5 0.9
0 1.5 1
0 1.5 1.1
0 1.5 1.2
0 1.5 1.3
0 1.5 1.4
0 1.5 1.5
0 1.5 1.6
0 1.5 1.7
0 1.5 1.8
0 1.5 1.9
0 1.5 2
0 1.6 0
0 1.6 0.1
0 1.6 0.2
0 1.6 0.3
0 1.6 0.4
0 1.6 0.5
0 1.6 0.6
0 1.6 0.7
0 1.6 0.8
0 1.6 0.9
0 1.6 1
0 1.6 1.1
0 1.6 1.2
0 1.6 1.3
0 1.6 1.4
0 1.6 1.5
0 1.6 1.6
0 1.6 1.7
0 1.6 1.8
0 1.6 1.9
0 1.6 2
0 1.7 0
0 1.7 0.1
0 1.7 0.2
0 1.7 0.3
0 1.7 0.4
0 1.7 0.5
0 1.7 0.6
0 1.7 0.7
0 1.7 0.8
0 1.7 0.9
0 1.7 1
0 1.7 1.1
0 1.7 1.2
0 1.7 1.3
0 1.7 1.4
0 1.7 1.5
0 1.7 1.6
0 1.7 1.7
0 1.7 1.8
0 1.7 1.9
0 1.7 2
0 1.8 0
0 1.8 0.1
0 1.8 0.2
0 1.8 0.3
0 1.8 0.4
0 1.8 0.5
0 1.8 0.6
0 1.8 0.7
0 1.8 0.8
0 1.8 0.9
0 1.8 1
0 1.8 1.1
0 1.8 1.2
0 1.8 1.3
0 1.8 1.4
0 1.8 1.5
0 1.8 1.6
0 1.8 1.7
0 1.8 1.8
0 1.8 1.9
0 1.8 2
0 1.9 0
0 1.9 0.1
0 1.9 0.2
0 1.9 0.3
0 1.9 0.4
0 1.9 0.5
0 1.9 0.6
0 1.9 0.7
0 1.9 0.8
0 1.9 0.9
0 1.9 1
0 1.9 1.1
0 1.9 1.2
0 1.9 1.3
0 1.9 1.4
0 1.9 1.5
0 1.9 1.6
0 1.9 1.7
0 1.9 1.8
0 1.9 1.9
0 1.9 2
0 2 0
0 2 0.1
0 2 0.2
0 2 0.3
0 2 0.4
0 2 0.5
0 2 0.6
0 2 0.7
0 2 0.8
0 2 0.9
0 2 1
0 2 1.1
0 2 1.2
0 2 1.3
0 2 1.4
0 2 1.5
0 2 1.6
0 2 1.7
0 2 1.8
0 2 1.9
0 2 2
0.1 0 0
0.1 0 0.1
0.1 0 0.2
0.1 0 0.3
0.1 0 0.4
0.1 0 0.5
0.1 0 0.6
0.1 0 0.7
0.1 0 0.8
0.1 0 0.9
0.1 0 1
0.1 0 1.1
0.1 0 1.2
0.1 0 1.3
0.1 0 1.4
0.1 0 1.5
0.1 0 1.6
0.1 0 1.7
0.1 0 1.8
0.1 0 1.9
0.1 0 2
0.1 0.1 0
0.1 0.1 0.1
0.1 0.1 0.2
0.1 0.1 0.3
0.1 0.1 0.4
0.1 0.1 0.5
0.1 0.1 0.6
0.1 0.1 0.7
0.1 0.1 0.8
0.1 0.1 0.9
0.1 0.1 1
0.1 0.1 1.1
0.1 0.1 1.2
0.1 0.1 1.3
0.1 0.1 1.4
0.1 0.1 1.5
0.1 0.1 1.6
0.1 0.1 1.7
0.1 0.1 1.8
0.1 0.1 1.9
0.1 0.1 2
0.1 0.2 0
0.1 0.2 0.1
0.1 0.2 0.2
0.1 0.2 0.3
0.1 0.2 0.4
0.1 0.2 0.5
0.1 0.2 0.6
0.1 0.2 0.7
0.1 0.2 0.8
0.1 0.2 0.9
0.1 0.2 1
0.1 0.2 1.1
0.1 0.2 1.2
0.1 0.2 1.3
0.1 0.2 1.4
0.1 0.2 1.5
0.1 0.2 1.6
0.1 0.2 1.7
0.1 0.2 1.8
0.1 0.2 1.9
0.1 0.2 2
0.1 0.3 0
0.1 0.3 0.1
0.1 0.3 0.2
0.1 0.3 0.3
0.1 0.3 0.4
0.1 0.3 0.5
0.1 0.3 0.6
0.1 0.3 0.7
0.1 0.3 0.8
0.1 0.3 0.9
0.1 0.3 1
0.1 0.3 1.1
0.1 0.3 1.2
0.1 0.3 1.3
0.1 0.3 1.4
0.1 0.3 1.5
0.1 0.3 1.6
0.1 0.3 1.7
0.1 0.3 1.8
0.1 0.3 1.9
0.1 0.3 2
0.1 0.4 0
0.1 0.4 0.1
0.1 0.4 0.2
0.1 0.4 0.3
0.1 0.4 0.4
0.1 0.4 0.5
0.1 0.4 0.6
0.1 0.4 0.7
0.1 0.4 0.8
0.1 0.4 0.9
0.1 0.4 1
0.1 0.4 1.1
0.1 0.4 1.2
0.1 0.4 1.3
0.1 0.4 1.4
0.1 0.4 1.5
0.1 0.4 1.6
0.1 0.4 1.7
0.1 0.4 1.8
0.1 0.4 1.9
0.1 0.4 2
0.1 0.5 0
0.1 0.5 0.1
0.1 0.5 0.2
0.1 0.5 0.3
0.1 0.5 0.4
0.1 0.5 0.5
0.1 0.5 0.6
0.1 0.5 0.7
0.1 0.5 0.8
0.1 0.5 0.9
0.1 0.5 1
0.1 0.5 1.1
0.1 0.5 1.2
0.1 0.5 1.3
0.1 0.5 1.4
0.1 0.5 1.5
0.1 0.5 1.6
0.1 0.5 1.7
0.1 0.5 1.8
0.1 0.5 1.9
0.1 0.5 2
0.1 0.6 0
0.1 0.6 0.1
0.1 0.6 0.2
0.1 0.6 0.3
0.1 0.6 0.4
0.1 0.6 0.5
0.1 0.6 0.6
0.1 0.6 0.7
0.1 0.6 0.8
0.1 0.6 0.9
0.1 0.6 1
0.1 0.6 1.1
0.1 0.6 1.2
0.1 0.6 1.3
0.1 0.6 1.4
0.1 0.6 1.5
0.1 0.6 1.6
0.1 0.6 1.7
0.1 0.6 1.8
0.1 0.6 1.9
0.1 0.6 2
0.1 0.7 0
0.1 0.7 0.1
0.1 0.7 0.2
0.1 0.7 0.3
0.1 0.7 0.4
0.1 0.7 0.5
0.1 0.7 0.6
0.1 0.7 0.7
0.1 0.7 0.8
0.1 0.7 0.9
0.1 0.7 1
0.1 0.7 1.1
0.1 0.7 1.2
0.1 0.7 1.3
0.1 0.7 1.4
0.1 0.7 1.5
0.1 0.7 1.6
0.1 0.7 1.7
0.1 0.7 1.8
0.1 0.7 1.9
0.1 0.7 2
0.1 0.8 0
0.1 0.8 0.1
0.1 0.8 0.2
0.1 0.8 0.3
0.1 0.8 0.4
0.1 0.8 0.5
0.1 0.8 0.6
0.1 0.8 0.7
0.1 0.8 0.8
0.1 0.8 0.9
0.1 0.8 1
0.1 0.8 1.1
0.1 0.8 1.2
0.1 0.8 1.3
0.1 0.8 1.4
0.1 0.8 1.5
0.1 0.8 1.6
0.1 0.8 1.7
0.1 0.8 1.8
0.1 0.8 1.9
0.1 0.8 2
0.1 0.9 0
0.1 0.9 0.1
0.1 0.9 0.2
0.1 0.9 0.3
0.1 0.9 0.4
0.1 0.9 0.5
0.1 0.9 0.6
0.1 0.9 0.7
0.1 0.9 0.8
0.1 0.9 0.9
0.1 0.9 1
0.1 0.9 1.1
0.1 0.9 1.2
0.1 0.9 1.3
0.1 0.9 1.4
0.1 0.9 1.5
0.1 0.9 1.6
0.1 0.9 1.7
0.1 0.9 1.8
0.1 0.9 1.9
0.1 0.9 2
0.1 1 0
0.1 1 0.1
0.1 1 0.2
0.1 1 0.3
0.1 1 0.4
0.1 1 0.5
0.1 1 0.6
0.1 1 0.7
0.1 1 0.8
0.1 1 0.9
0.1 1 1
0.1 1 1.1
0.1 1 1.2
0.1 1 1.3
0.1 1 1.4
0.1 1 1.5
0.1 1 1.6
0.1 1 1.7
0.1 1 1.8
0.1 1 1.9
0.1 1 2
0.1 1.1 0
0.1 1.1 0.1
0.1 1.1 0.2
0.1 1.1 0.3
0.1 1.1 0.4
0.1 1.1 0.5
0.1 1.1 0.6
0.1 1.1 0.7
0.1 1.1 0.8
0.1 1.1 0.9
0.1 1.1 1
0.1 1.1 1.1
0.1 1.1 1.2
0.1 1.1 1.3
0.1 1.1 1.4
0.1 1.1 1.5
0.1 1.1 1.6
0.1 1.1 1.7
0.1 1.1 1.8
0.1 1.1 1.9
0.1 1.1 2
0.1 1.2 0
0.1 1.2 0.1
0.1 1.2 0.2
0.1 1.2 0.3
0.1 1.2 0.4
0.1 1.2 0.5
0.1 1.2 0.6
0.1 1.2 0.7
0.1 1.2 0.8
0.1 1.2 0.9
0.1 1.2 1
0.1 1.2 1.1
0.1 1.2 1.2
0.1 1.2 1.3
0.1 1.2 1.4
0.1 1.2 1.5
0.1 1.2 1.6
0.1 1.2 1.7
0.1 1.2 1.8
0.1 1.2 1.9
0.1 1.2 2
0.1 1.3 0
0.1 1.3 0.1
0.1 1.3 0.2
0.1 1.3 0.3
0.1 1.3 0.4
0.1 1.3 0.5
0.1 1.3 0.6
0.1 1.3 0.7
0.1 1.3 0.8
0.1 1.3 0.9
0.1 1.3 1
0.1 1.3 1.1
0.1 1.3 1.2
0.1 1.3 1.3
0.1 1.3 1.4
0.1 1.3 1.5
0.1 1.3 1.6
0.1 1.3 1.7
0.1 1.3 1.8
0.1 1.3 1.9
0.1 1.3 2
0.1 1.4 0
0.1 1.4 0.1
0.1 1.4 0.2
0.1 1.4 0.3
0.1 1.4 0.4
0.1 1.4 0.5
0.1 1.4 0.6
0.1 1.4 0.7
0.1 1.4 0.8
0.1 1.4 0.9
0.1 1.4 1
0.1 1.4 1.1
0.1 1.4 1.2
0.1 1.4 1.3
0.1 1.4 1.4
0.1 1.4 1.5
0.1 1.4 1.6
0.1 1.4 1.7
0.1 1.4 1.8
0.1 1.4 1.9
0.1 1.4 2
0.1 1.5 0
0.1 1.5 0.1
0.1 1.5 0.2
0.1 1.5 0.3
0.1 1.5 0.4
0.1 1.5 0.5
0.1 1.5 0.6
0.1 1.5 0.7
0.1 1.5 0.8
0.1 1.5 0.9
0.1 1.5 1
0.1 1.5 1.1
0.1 1.5 1.2
0.1 1.5 1.3
0.1 1.5 1.4
0.1 1.5 1.5
0.1 1.5 1.6
0.1 1.5 1.7
0.1 1.5 1.8
0.1 1.5 1.9
0.1 1.5 2
0.1 1.6 0
0.1 1.6 0.1
0.1 1.6 0.2
0.1 1.6 0.3
0.1 1.6 0.4
0.1 1.6 0.5
0.1 1.6 0.6
0.1 1.6 0.7
0.1 1.6 0.8
0.1 1.6 0.9
0.1 1.6 1
0.1 1.6 1.1
0.1 1.6 1.2
0.1 1.6 1.3
0.1 1.6 1.4
0.1 1.6 1.5
0.1 1.6 1.6
0.1 1.6 1.7
0.1 1.6 1.8
0.1 1.6 1.9
0.1 1.6 2
0.1 1.7 0
0.1 1.7 0.1
0.1 1.7 0.2
0.1 1.7 0.3
0.1 1.7 0.4
0.1 1.7 0.5
0.1 1.7 0.6
0.1 1.7 0.7
0.1 1.7 0.8
0.1 1.7 0.9
0.1 1.7 1
0.1 1.7 1.1
0.1 1.7 1.2
0.1 1.7 1.3
0.1 1.7 1.4
0.1 1.7 1.5
0.1 1.7 1.6
0.1 1.7 1.7
0.1 1.7 1.8
0.1 1.7 1.9
0.1 1.7 2
0.1 1.8 0
0.1 1.8 0.1
0.1 1.8 0.2
0.1 1.8 0.3
0.1 1.8 0.4
0.1 1.8 0.5
0.1 1.8 0.6
0.1 1.8 0.7
0.1 1.8 0.8
0.1 1.8 0.9
0.1 1.8 1
0.1 1.8 1.1
0.1 1.8 1.2
0.1 1.8 1.3
0.1 1.8 1.4
0.1 1.8 1.5
0.1 1.8 1.6
0.1 1.8 1.7
0.1 1.8 1.8
0.1 1.8 1.9
0.1 1.8 2
0.1 1.9 0
0.1 1.9 0.1
0.1 1.9 0.2
0.1 1.9 0.3
0.1 1.9 0.4
0.1 1.9 0.5
0.1 1.9 0.6
0.1 1.9 0.7
0.1 1.9 0.8
0.1 1.9 0.9
0.1 1.9 1
0.1 1.9 1.1
0.1 1.9 1.2
0.1 1.9 1.3
0.1 1.9 1.4
0.1 1.9 1.5
0.1 1.9 1.6
0.1 1.9 1.7
0.1 1.9 1.8
0.1 1.9 1.9
0.1 1.9 2
0.1 2 0
0.1 2 0.1
0.1 2 0.2
0.1 2 0.3
0.1 2 0.4
0.1 2 0.5
0.1 2 0.6
0.1 2 0.7
0.1 2 0.8
0.1 2 0.9
0.1 2 1
0.1 2 1.1
0.1 2 1.2
0.1 2 1.3
0.1 2 1.4
0.1 2 1.5
0.1 2 1.6
0.1 2 1.7
0.1 2 1.8
0.1 2 1.9
0.1 2 2
0.2 0 0
0.2 0 0.1
0.2 0 0.2
0.2 0 0.3
0.2 0 0.4
0.2 0 0.5
0.2 0 0.6
0.2 0 0.7
0.2 0 0.8
0.2 0 0.9
0.2 0 1
0.2 0 1.1
0.2 0 1.2
0.2 0 1.3
0.2 0 1.4
0.2 0 1.5
0.2 0 1.6
0.2 0 1.7
0.2 0 1.8
0.2 0 1.9
0.2 0 2
0.2 0.1 0
0.2 0.1 0.1
0.2 0.1 0.2
0.2 0.1 0.3
0.2 0.1 0.4
0.2 0.1 0.5
0.2 0.1 0.6
0.2 0.1 0.7
0.2 0.1 0.8
0.2 0.1 0.9
0.2 0.1 1
0.2 0.1 1.1
0.2 0.1 1.2
0.2 0.1 1.3
0.2 0.1 1.4
0.2 0.1 1.5
0.2 0.1 1.6
0.2 0.1 1.7
0.2 0.1 1.8
0.2 0.1 1.9
0.2 0.1 2
0.2 0.2 0
0.2 0.2 0.1
0.2 0.2 0.2
0.2 0.2 0.3
0.2 0.2 0.4
0.2 0.2 0.5
0.2 0.2 0.6
0.2 0.2 0.7
0.2 0.2 0.8
0.2 0.2 0.9
0.2 0.2 1
0.2 0.2 1.1
0.2 0.2 1.2
0.2 0.2 1.3
0.2 0.2 1.4
0.2 0.2 1.5
0.2 0.2 1.6
0.2 0.2 1.7
0.2 0.2 1.8
0.2 0.2 1.9
[...]
CELL_DATA 8000
SCALARS Phi_sigma_(3D) float 1
LOOKUP_TABLE default
0.191941
0.19072
0.18938
0.188402
0.187645
0.187095
0.186731
0.186497
0.186405
0.186359
0.186361
0.18642
0.186598
0.186947
0.187425
0.187999
0.188739
0.189737
0.191057
0.192253
0.192668
0.190885
0.189296
0.188389
0.187636
0.187092
0.186756
0.186517
0.186476
0.186427
0.186423
0.186448
0.186603
0.186976
0.18747
0.188006
0.1887
0.189671
0.191223
0.192961
0.196765
0.195029
0.193496
0.19266
0.191983
0.191524
0.191231
0.190988
0.19094
0.190907
0.190947
0.190975
0.191098
0.191433
0.191906
0.19244
0.193079
0.193947
0.195426
0.197195
0.204604
0.203644
0.202593
0.201865
0.20133
0.200985
0.200736
0.200528
0.200442
0.200435
0.200515
0.200586
0.200709
0.20097
0.20137
0.20188
0.202451
0.203162
0.204182
0.20524
0.213502
0.213018
0.212401
0.211884
0.211484
0.211203
0.211002
0.21086
0.210796
0.2108
0.210866
0.21096
0.211105
0.211339
0.211664
0.212069
0.212533
0.213074
0.213705
0.214233
0.222165
0.22192
0.221569
0.221233
0.220955
0.220746
0.220598
0.220505
0.220469
0.220485
0.220549
0.220651
0.220798
0.221004
0.221269
0.221584
0.221939
0.222324
0.222707
0.222978
0.230262
0.230134
0.229936
0.229729
0.229547
0.229405
0.229307
0.229252
0.229241
0.229271
0.229338
0.229441
0.22958
0.229758
0.229974
0.23022
0.230485
0.230753
0.230992
0.231143
0.237757
0.237688
0.237578
0.237455
0.237344
0.237258
0.237202
0.237179
0.237189
0.237231
0.237304
0.237404
0.237532
0.237686
0.237863
0.238056
0.238255
0.238444
0.2386
0.238692
0.244684
0.244648
0.244589
0.244522
0.244462
0.244418
0.244396
0.244399
0.244427
0.24448
0.244556
0.244653
0.24477
0.244905
0.245052
0.245206
0.245358
0.245496
0.245603
0.245664
0.251086
0.251069
0.25104
0.25101
0.250985
0.250973
0.250978
0.251001
0.251044
0.251105
0.251185
0.25128
0.251388
0.251507
0.251632
0.251758
0.251877
0.251981
0.25206
0.252102
0.256988
0.256983
0.256974
0.256967
0.256967
0.256979
0.257003
0.257043
0.257097
0.257166
0.257248
0.257341
0.257443
0.25755
0.257659
0.257765
0.257862
0.257944
0.258004
0.258036
0.2624
0.262402
0.262406
0.262415
0.262433
0.262461
0.262501
0.262553
0.262617
0.262692
0.262776
0.262868
0.262965
0.263063
0.263161
0.263253
0.263335
0.263403
0.263451
0.263476
0.267316
0.267322
0.267334
0.267355
0.267385
0.267426
0.267477
0.267538
0.26761
0.267689
0.267776
0.267867
0.26796
0.268052
0.268142
0.268224
0.268296
0.268354
0.268396
0.268417
0.271717
0.271726
0.271745
0.271773
0.271812
0.271861
0.271921
0.27199
0.272067
0.27215
0.272238
0.272329
0.27242
0.272508
0.272592
0.272667
0.272733
0.272785
0.272821
0.27284
0.275578
0.275589
0.275611
0.275645
0.27569
0.275746
0.275812
0.275887
0.275968
0.276055
0.276144
0.276235
0.276324
0.276409
0.276489
0.27656
0.27662
0.276668
0.276701
0.276718
0.278866
0.278879
0.278904
0.278942
0.278992
0.279052
0.279123
0.279201
0.279286
0.279375
0.279466
0.279556
0.279644
0.279728
0.279805
0.279873
0.27993
0.279975
0.280006
0.280022
0.281549
0.281563
0.28159
0.281631
0.281684
0.281748
0.281822
0.281904
0.281991
0.282082
0.282173
0.282264
0.282351
0.282433
0.282508
0.282574
0.282629
0.282672
0.282701
0.282717
0.283597
0.283611
0.28364
0.283682
0.283737
0.283804
0.28388
0.283964
0.284053
0.284145
0.284237
0.284328
0.284414
0.284495
0.284569
0.284633
0.284687
0.284728
0.284757
0.284772
0.28498
0.284995
0.285024
0.285068
0.285125
0.285193
0.28527
0.285355
0.285445
0.285538
0.28563
0.285721
0.285808
0.285888
0.285961
0.286024
0.286077
0.286118
0.286146
0.28616
0.285679
0.285694
0.285724
0.285768
0.285825
0.285894
0.285972
0.286058
0.286148
0.286241
0.286334
0.286424
0.286511
0.286591
0.286663
0.286726
0.286778
0.286819
0.286846
0.286861
0.192799
0.191041
0.189467
0.188562
0.187815
0.187278
0.186944
0.186702
0.186656
0.186608
0.186611
0.186638
0.18679
0.187158
0.187651
0.188193
0.188887
0.189849
0.191385
0.193108
0.191465
0.187096
0.184712
0.184332
0.183455
0.182829
0.182589
0.182248
0.182468
0.182347
0.182309
0.1822
0.182274
0.182804
0.183414
0.183803
0.184386
0.185126
0.187379
0.191549
0.195173
0.190772
0.188321
0.187979
0.187175
0.186741
0.186562
0.18613
0.186297
0.186195
0.186323
0.186202
0.186174
0.186618
0.187219
0.18773
0.188263
0.188798
0.190985
0.195552
0.204955
0.203424
0.202013
0.201308
0.200781
0.200577
0.200377
0.200057
0.199951
0.199949
0.200179
0.200206
0.200218
0.200436
0.200864
0.201499
0.202032
0.202585
0.203806
0.20577
0.21468
0.214084
0.213401
0.212895
0.21251
0.212254
0.212068
0.21192
0.211862
0.211871
0.211953
0.212039
0.212168
0.212395
0.21272
0.213127
0.213571
0.214087
0.214768
0.215443
0.223443
0.22318
0.222824
0.222499
0.222233
0.222035
0.221896
0.221808
0.221778
0.221798
0.221864
0.221964
0.222108
0.222311
0.22257
0.222877
0.223219
0.223593
0.223981
0.224273
0.231462
0.231334
0.231141
0.230942
0.230769
0.230635
0.230544
0.230495
0.230488
0.230521
0.230589
0.230692
0.230829
0.231005
0.231216
0.231455
0.231712
0.231973
0.232208
0.232359
0.238859
0.238794
0.238687
0.238572
0.238467
0.238387
0.238336
0.238318
0.238331
0.238376
0.238449
0.23855
0.238677
0.238829
0.239003
0.239192
0.239385
0.239569
0.239721
0.239811
0.245712
0.245678
0.245622
0.245559
0.245504
0.245465
0.245447
0.245453
0.245485
0.245539
0.245617
0.245715
0.245832
0.245965
0.24611
0.246261
0.24641
0.246544
0.246649
0.246708
0.252066
0.25205
0.252024
0.251997
0.251976
0.251967
0.251975
0.252002
0.252047
0.252111
0.252192
0.252287
0.252396
0.252514
0.252638
0.252762
0.25288
0.252982
0.253058
0.2531
0.257945
0.257941
0.257934
0.25793
0.257933
0.257947
0.257975
0.258017
0.258074
0.258145
0.258229
0.258323
0.258425
0.258532
0.25864
0.258745
0.258841
0.258922
0.258981
0.259012
0.263354
0.263356
0.263362
0.263373
0.263393
0.263424
0.263467
0.263521
0.263588
0.263665
0.263751
0.263844
0.263941
0.26404
0.264137
0.264229
0.264311
0.264378
0.264426
0.264451
0.26828
0.268287
0.268301
0.268323
0.268356
0.268398
0.268452
0.268516
0.26859
0.268672
0.26876
0.268852
0.268947
0.26904
0.269129
0.269212
0.269283
0.269341
0.269382
0.269403
0.272701
0.272711
0.272731
0.272761
0.272802
0.272854
0.272916
0.272988
0.273067
0.273153
0.273243
0.273335
0.273427
0.273516
0.2736
0.273676
0.273741
0.273793
0.273829
0.273848
0.276587
0.276599
0.276623
0.276659
0.276706
0.276765
0.276834
0.276911
0.276995
0.277084
0.277175
0.277268
0.277358
0.277444
0.277524
0.277596
0.277656
0.277704
0.277737
0.277754
0.279903
0.279916
0.279943
0.279983
0.280035
0.280099
0.280172
0.280254
0.280341
0.280433
0.280526
0.280618
0.280707
0.280792
0.280869
0.280937
0.280995
0.28104
0.281071
0.281087
0.282613
0.282627
0.282656
0.282699
0.282754
0.282821
0.282898
0.282983
0.283073
0.283166
0.28326
0.283353
0.283441
0.283524
0.2836
0.283666
0.283721
0.283764
0.283794
0.283809
0.284682
0.284697
0.284728
0.284772
0.28483
0.2849
0.284979
0.285066
0.285158
0.285252
0.285347
0.285439
0.285528
0.28561
0.285684
0.285749
0.285802
0.285844
0.285873
0.285888
0.286082
0.286098
0.286129
0.286174
0.286234
0.286305
0.286386
0.286474
0.286567
0.286662
0.286757
0.28685
0.286938
0.287019
0.287093
0.287156
0.287209
0.28725
0.287278
0.287293
0.286789
0.286805
0.286836
0.286883
0.286943
0.287015
0.287096
0.287185
0.287278
0.287374
0.287469
0.287562
0.28765
0.287731
0.287804
0.287867
0.287919
0.28796
0.287988
0.288002
0.197131
0.195512
0.194025
0.19318
0.192519
0.192091
0.191803
0.191546
0.191477
0.19145
0.191517
0.191552
0.191662
0.191977
0.192447
0.193007
0.193648
0.19449
0.195914
0.197622
0.195536
0.191581
0.189161
0.188686
0.187929
0.18764
0.187472
0.18697
0.187028
0.186953
0.187223
0.187117
0.187023
0.187374
0.187962
0.188634
0.189182
0.189645
0.191703
0.196161
0.199464
0.195386
0.193098
0.192783
0.192055
0.191655
0.191493
0.191106
0.191269
0.191184
0.191301
0.191194
0.191179
0.191602
0.192165
0.192634
0.19312
0.193625
0.195682
0.199908
0.208875
0.207039
0.205869
0.205445
0.204907
0.204407
0.204186
0.204091
0.204204
0.204167
0.204055
0.204079
0.204275
0.20467
0.20507
0.205302
0.205764
0.20648
0.20774
0.209244
0.217906
0.21729
0.216681
0.216258
0.215898
0.215614
0.215439
0.215344
0.215335
0.215341
0.215368
0.21545
0.215611
0.215863
0.216165
0.216484
0.216885
0.217394
0.21804
0.218621
0.226211
0.225961
0.225639
0.225353
0.225111
0.224924
0.2248
0.224732
0.224718
0.224742
0.2248
0.224899
0.225047
0.225249
0.225493
0.22577
0.226085
0.226436
0.226796
0.227058
0.233892
0.233775
0.233601
0.233424
0.23327
0.23315
0.233071
0.233034
0.233036
0.233073
0.233143
0.233245
0.233382
0.233553
0.233754
0.233978
0.234218
0.23446
0.234678
0.234817
0.241049
0.24099
0.240896
0.240794
0.240702
0.240633
0.240593
0.240583
0.240603
0.240652
0.240728
0.240829
0.240955
0.241103
0.241271
0.24145
0.241632
0.241805
0.241947
0.24203
0.247744
0.247714
0.247665
0.247612
0.247566
0.247536
0.247526
0.247539
0.247576
0.247635
0.247715
0.247814
0.24793
0.248061
0.248202
0.248348
0.248489
0.248617
0.248716
0.248771
0.254006
0.253993
0.253972
0.253951
0.253937
0.253936
0.253951
0.253983
0.254033
0.254101
0.254184
0.254281
0.25439
0.254507
0.254629
0.25475
0.254863
0.254961
0.255034
0.255074
0.259845
0.259842
0.259839
0.25984
0.259849
0.259869
0.259902
0.25995
0.260012
0.260086
0.260173
0.260269
0.260372
0.260479
0.260586
0.260689
0.260783
0.260861
0.260918
0.260949
0.265251
0.265255
0.265264
0.265279
0.265304
0.265341
0.265388
0.265448
0.265519
0.2656
0.265689
0.265784
0.265883
0.265983
0.26608
0.26617
0.266251
0.266317
0.266364
0.266388
0.270203
0.270211
0.270228
0.270254
0.270291
0.270339
0.270398
0.270467
0.270546
0.270632
0.270723
0.270818
0.270914
0.271009
0.271098
0.27118
0.271252
0.271309
0.271349
0.27137
0.274668
0.27468
0.274702
0.274736
0.274782
0.274839
0.274906
0.274983
0.275068
0.275158
0.275252
0.275347
0.275441
0.275531
0.275616
0.275692
0.275757
0.275808
0.275844
0.275863
0.278609
0.278623
0.278649
0.278689
0.278741
0.278805
0.278879
0.278962
0.279051
0.279145
0.27924
0.279336
0.279428
0.279516
0.279597
0.279669
0.27973
0.279777
0.27981
0.279827
0.281983
0.281998
0.282028
0.282072
0.282129
0.282198
0.282277
0.282364
0.282457
0.282554
0.282651
0.282746
0.282838
0.282925
0.283003
0.283072
0.283129
0.283174
0.283205
0.283221
0.284748
0.284764
0.284796
0.284843
0.284904
0.284977
0.28506
0.28515
0.285246
0.285344
0.285443
0.285539
0.28563
0.285715
0.285792
0.285858
0.285914
0.285957
0.285986
0.286001
0.286865
0.286881
0.286914
0.286963
0.287027
0.287102
0.287188
0.287281
0.287379
0.287479
0.287578
0.287674
0.287765
0.287849
0.287924
0.28799
0.288044
0.288085
0.288114
0.288128
0.288298
0.288315
0.288349
0.2884
0.288465
0.288542
0.288629
0.288724
0.288823
0.288924
0.289023
0.28912
0.289211
0.289294
0.289368
0.289433
0.289485
0.289526
0.289554
0.289568
0.289023
0.28904
0.289075
0.289126
0.289191
0.28927
0.289358
0.289453
0.289553
0.289654
0.289754
0.28985
0.289941
0.290024
0.290098
0.290162
0.290214
0.290254
0.290282
0.290296
0.205102
0.204208
0.203229
0.202529
0.201999
0.201633
0.201379
0.201193
0.201121
0.20111
0.201164
0.201237
0.20138
0.201654
0.202045
0.202522
0.203085
0.2038
0.204773
0.205708
0.205618
0.204201
0.202967
0.202316
0.201788
0.201452
0.201227
0.201011
0.200968
0.200958
0.201038
0.201081
0.201182
0.201464
0.201876
0.202357
0.202884
0.203548
0.204733
0.206247
0.20868
0.206838
0.205533
0.205048
0.204529
0.204196
0.204008
0.203793
0.20382
0.203797
0.203866
0.203882
0.203973
0.204283
0.204695
0.20511
0.205578
0.20615
0.207389
0.209294
0.215538
0.214659
0.213875
0.213409
0.213007
0.212696
0.212511
0.212403
0.212406
0.212406
0.212427
0.212494
0.21265
0.212922
0.213248
0.213581
0.214002
0.214563
0.215374
0.216211
0.222985
0.222593
0.222147
0.221794
0.221502
0.221277
0.221132
0.221055
0.221043
0.221061
0.221109
0.221201
0.221355
0.221577
0.221845
0.222142
0.222495
0.222917
0.223399
0.223789
0.230351
0.230167
0.229917
0.229683
0.229484
0.22933
0.22923
0.22918
0.229176
0.229208
0.229272
0.229374
0.229518
0.229705
0.229929
0.230179
0.230458
0.230758
0.23105
0.23125
0.237452
0.23736
0.23722
0.237076
0.236949
0.236853
0.236792
0.236769
0.236782
0.236825
0.236899
0.237002
0.237135
0.237298
0.237485
0.23769
0.237906
0.238119
0.238305
0.23842
0.244244
0.244196
0.24412
0.244038
0.243966
0.243914
0.243888
0.243889
0.243918
0.243973
0.244052
0.244154
0.244278
0.244421
0.244579
0.244746
0.244913
0.245069
0.245195
0.245267
0.250716
0.250693
0.250655
0.250615
0.250582
0.250564
0.250566
0.250589
0.250633
0.250698
0.250781
0.250882
0.250997
0.251125
0.25126
0.251398
0.25153
0.251648
0.251738
0.251787
0.256858
0.256849
0.256836
0.256824
0.25682
0.256829
0.256853
0.256893
0.256951
0.257024
0.257111
0.25721
0.257319
0.257435
0.257553
0.257669
0.257777
0.257869
0.257937
0.257974
0.262651
0.262652
0.262654
0.262662
0.262679
0.262707
0.262749
0.262805
0.262873
0.262953
0.263044
0.263143
0.263247
0.263353
0.263459
0.26356
0.26365
0.263725
0.26378
0.263808
0.268068
0.268074
0.268087
0.268109
0.268141
0.268185
0.268241
0.268308
0.268386
0.268473
0.268566
0.268665
0.268766
0.268866
0.268962
0.269052
0.26913
0.269194
0.26924
0.269263
0.27307
0.27308
0.273101
0.273133
0.273177
0.273232
0.273299
0.273376
0.273461
0.273554
0.27365
0.273749
0.273847
0.273943
0.274033
0.274115
0.274185
0.274241
0.27428
0.274301
0.277612
0.277625
0.277651
0.277691
0.277744
0.277809
0.277884
0.277969
0.278061
0.278158
0.278257
0.278356
0.278453
0.278545
0.278631
0.278707
0.278771
0.278822
0.278857
0.278876
0.281644
0.281659
0.28169
0.281736
0.281795
0.281867
0.28195
0.282041
0.282138
0.282238
0.28234
0.28244
0.282536
0.282626
0.282708
0.28278
0.28284
0.282887
0.28292
0.282937
0.285113
0.28513
0.285164
0.285214
0.285279
0.285357
0.285445
0.285541
0.285642
0.285746
0.285849
0.28595
0.286045
0.286134
0.286213
0.286283
0.28634
0.286384
0.286415
0.28643
0.287968
0.287986
0.288022
0.288076
0.288145
0.288227
0.288319
0.288419
0.288524
0.28863
0.288735
0.288836
0.288931
0.289018
0.289096
0.289163
0.289218
0.289261
0.28929
0.289304
0.29016
0.290179
0.290217
0.290273
0.290344
0.29043
0.290525
0.290628
0.290735
0.290842
0.290948
0.29105
0.291145
0.291231
0.291308
0.291373
0.291427
0.291468
0.291496
0.29151
0.291648
0.291667
0.291706
0.291764
0.291837
0.291925
0.292022
0.292127
0.292235
0.292344
0.29245
0.292552
0.292647
0.292733
0.292808
0.292873
0.292925
0.292966
0.292993
0.293007
0.292401
0.292421
0.292461
0.292519
0.292593
0.292681
0.29278
0.292885
0.292994
0.293104
0.293211
0.293312
0.293407
0.293492
0.293568
0.293632
0.293684
0.293723
0.29375
0.293764
0.213898
0.213444
0.212864
0.212367
0.211973
0.211684
0.211482
0.21135
0.211294
0.211296
0.21135
0.211444
0.211599
0.211838
0.212157
0.212544
0.212999
0.213533
0.214135
0.214612
0.215042
0.214479
0.213841
0.213356
0.212974
0.212699
0.212509
0.21238
0.212334
0.21234
0.212398
0.212485
0.21263
0.212868
0.213186
0.213565
0.214002
0.214526
0.215179
0.215772
0.217992
0.217379
0.216753
0.216323
0.215971
0.215717
0.215549
0.215435
0.21541
0.21542
0.215476
0.215559
0.2157
0.215936
0.21624
0.216588
0.216988
0.217472
0.218114
0.218751
0.223024
0.222633
0.222184
0.22183
0.221541
0.221322
0.221179
0.221098
0.221083
0.221102
0.221155
0.221248
0.221398
0.221616
0.221884
0.222187
0.22254
0.222957
0.223439
0.223839
0.22905
0.228832
0.228546
0.228286
0.228069
0.227903
0.227795
0.22774
0.227734
0.227764
0.227827
0.227928
0.228073
0.228267
0.228499
0.228761
0.229055
0.229379
0.229707
0.22994
0.235445
0.235326
0.235153
0.23498
0.23483
0.234716
0.234644
0.234613
0.234622
0.234663
0.234734
0.234838
0.234976
0.235147
0.235346
0.235567
0.235804
0.236045
0.236264
0.236404
0.241907
0.241842
0.241742
0.241635
0.241542
0.241473
0.241434
0.241427
0.241452
0.241504
0.241582
0.241686
0.241815
0.241967
0.242138
0.242321
0.242509
0.242688
0.242838
0.242927
0.248293
0.248259
0.248204
0.248146
0.248096
0.248064
0.248055
0.24807
0.24811
0.248172
0.248255
0.248359
0.24848
0.248616
0.248763
0.248916
0.249065
0.249201
0.249308
0.249369
0.254524
0.254509
0.254484
0.254459
0.254443
0.254441
0.254456
0.254491
0.254544
0.254616
0.254704
0.254806
0.254921
0.255044
0.255173
0.255301
0.255423
0.255528
0.255608
0.255652
0.260547
0.260543
0.260538
0.260538
0.260546
0.260567
0.260603
0.260654
0.26072
0.2608
0.260892
0.260994
0.261104
0.261218
0.261332
0.261442
0.261543
0.261628
0.261691
0.261724
0.266311
0.266315
0.266324
0.266341
0.266368
0.266408
0.26646
0.266525
0.266603
0.26669
0.266786
0.266888
0.266994
0.2671
0.267204
0.267301
0.267388
0.267459
0.26751
0.267536
0.271766
0.271776
0.271794
0.271824
0.271866
0.27192
0.271986
0.272063
0.27215
0.272244
0.272344
0.272446
0.27255
0.272651
0.272747
0.272834
0.272911
0.272972
0.273015
0.273038
0.276856
0.276869
0.276895
0.276935
0.276989
0.277054
0.277132
0.277219
0.277313
0.277413
0.277517
0.27762
0.277722
0.277819
0.277909
0.27799
0.278059
0.278113
0.278151
0.278171
0.281519
0.281535
0.281567
0.281615
0.281677
0.281753
0.281839
0.281935
0.282036
0.282141
0.282248
0.282352
0.282453
0.282548
0.282634
0.282709
0.282773
0.282823
0.282857
0.282874
0.285689
0.285708
0.285744
0.285798
0.285868
0.285952
0.286046
0.286148
0.286256
0.286366
0.286475
0.286581
0.286681
0.286773
0.286856
0.286928
0.286988
0.287034
0.287065
0.287081
0.289301
0.289321
0.289361
0.28942
0.289496
0.289586
0.289686
0.289795
0.289907
0.290021
0.290132
0.290239
0.290339
0.29043
0.29051
0.290579
0.290636
0.290679
0.290709
0.290724
0.292288
0.292309
0.292353
0.292416
0.292496
0.292591
0.292696
0.292809
0.292925
0.293042
0.293155
0.293263
0.293363
0.293453
0.293531
0.293598
0.293652
0.293693
0.293721
0.293736
0.294591
0.294613
0.294659
0.294724
0.294808
0.294907
0.295016
0.295132
0.295252
0.29537
0.295485
0.295593
0.295693
0.295782
0.295859
0.295924
0.295977
0.296016
0.296043
0.296057
0.296159
0.296182
0.296229
0.296296
0.296383
0.296483
0.296595
0.296714
0.296835
0.296955
0.297071
0.297179
0.297279
0.297367
0.297443
0.297507
0.297558
0.297597
0.297623
0.297636
0.296954
0.296978
0.297025
0.297094
0.297181
0.297283
0.297396
0.297515
0.297637
0.297758
0.297874
0.297983
0.298082
0.29817
0.298246
0.29831
0.29836
0.298398
0.298424
0.298437
0.222461
0.222228
0.221895
0.221571
0.221298
0.221088
0.220941
0.220852
0.220819
0.220834
0.220895
0.220996
0.221146
0.221353
0.221613
0.221921
0.222268
0.222644
0.223012
0.223265
0.223695
0.223444
0.223103
0.222788
0.222525
0.222326
0.222187
0.222104
0.222077
0.222096
0.222157
0.222257
0.222405
0.222608
0.222864
0.223163
0.2235
0.223869
0.224244
0.224516
0.22635
0.226102
0.225782
0.225497
0.225259
0.225079
0.224958
0.224887
0.224871
0.224895
0.224959
0.225058
0.225202
0.2254
0.225643
0.225923
0.226236
0.22658
0.226936
0.227204
0.230426
0.230243
0.229993
0.22976
0.229562
0.229412
0.229313
0.229262
0.229257
0.229289
0.229356
0.229457
0.229599
0.229785
0.230008
0.23026
0.230538
0.230835
0.231126
0.231329
0.235476
0.235357
0.235184
0.235012
0.234863
0.23475
0.234678
0.234647
0.234655
0.234697
0.234769
0.234872
0.23501
0.235181
0.235379
0.2356
0.235836
0.236077
0.236296
0.236436
0.241092
0.24102
0.240909
0.240793
0.240691
0.240616
0.240573
0.240564
0.240586
0.240637
0.240715
0.24082
0.24095
0.241106
0.241281
0.241471
0.241666
0.241855
0.242015
0.242112
0.246998
0.246957
0.246891
0.246821
0.246761
0.246721
0.246705
0.246716
0.246753
0.246814
0.246898
0.247002
0.247127
0.247268
0.247422
0.247583
0.247743
0.247891
0.248009
0.248076
0.25302
0.252999
0.252966
0.252931
0.252905
0.252895
0.252904
0.252934
0.252985
0.253056
0.253144
0.253249
0.253367
0.253497
0.253633
0.25377
0.253902
0.254018
0.254107
0.254156
0.259044
0.259036
0.259025
0.259017
0.259018
0.259032
0.259063
0.259111
0.259176
0.259255
0.259348
0.259453
0.259567
0.259686
0.259808
0.259926
0.260036
0.26013
0.2602
0.260237
0.264981
0.264982
0.264987
0.264999
0.265022
0.265057
0.265106
0.26517
0.265246
0.265334
0.265432
0.265538
0.265648
0.265759
0.26587
0.265974
0.266068
0.266146
0.266202
0.266232
0.270757
0.270765
0.270782
0.270809
0.270849
0.270901
0.270966
0.271043
0.271131
0.271227
0.271329
0.271436
0.271543
0.271649
0.271751
0.271844
0.271926
0.271993
0.27204
0.272065
0.276299
0.276312
0.276338
0.276377
0.276431
0.276497
0.276576
0.276665
0.276763
0.276866
0.276973
0.277081
0.277187
0.277289
0.277384
0.277469
0.277543
0.277601
0.277642
0.277663
0.281531
0.281547