# vtk DataFile Version 2.0
Pressure 3D1D coupled problem
ASCII
DATASET UNSTRUCTURED_GRID
POINTS 9261 float
0 0 0
0 0 0.1
0 0 0.2
0 0 0.3
0 0 0.4
0 0 0.5
0 0 0.6
0 0 0.7
0 0 0.8
0 0 0.9
0 0 1
0 0 1.1
0 0 1.2
0 0 1.3
0 0 1.4
0 0 1.5
0 0 1.6
0 0 1.7
0 0 1.8
0 0 1.9
0 0 2
0 0.1 0
0 0.1 0.1
0 0.1 0.2
0 0.1 0.3
0 0.1 0.4
0 0.1 0.5
0 0.1 0.6
0 0.1 0.7
0 0.1 0.8
0 0.1 0.9
0 0.1 1
0 0.1 1.1
0 0.1 1.2
0 0.1 1.3
0 0.1 1.4
0 0.1 1.5
0 0.1 1.6
0 0.1 1.7
0 0.1 1.8
0 0.1 1.9
0 0.1 2
0 0.2 0
0 0.2 0.1
0 0.2 0.2
0 0.2 0.3
0 0.2 0.4
0 0.2 0.5
0 0.2 0.6
0 0.2 0.7
0 0.2 0.8
0 0.2 0.9
0 0.2 1
0 0.2 1.1
0 0.2 1.2
0 0.2 1.3
0 0.2 1.4
0 0.2 1.5
0 0.2 1.6
0 0.2 1.7
0 0.2 1.8
0 0.2 1.9
0 0.2 2
0 0.3 0
0 0.3 0.1
0 0.3 0.2
0 0.3 0.3
0 0.3 0.4
0 0.3 0.5
0 0.3 0.6
0 0.3 0.7
0 0.3 0.8
0 0.3 0.9
0 0.3 1
0 0.3 1.1
0 0.3 1.2
0 0.3 1.3
0 0.3 1.4
0 0.3 1.5
0 0.3 1.6
0 0.3 1.7
0 0.3 1.8
0 0.3 1.9
0 0.3 2
0 0.4 0
0 0.4 0.1
0 0.4 0.2
0 0.4 0.3
0 0.4 0.4
0 0.4 0.5
0 0.4 0.6
0 0.4 0.7
0 0.4 0.8
0 0.4 0.9
0 0.4 1
0 0.4 1.1
0 0.4 1.2
0 0.4 1.3
0 0.4 1.4
0 0.4 1.5
0 0.4 1.6
0 0.4 1.7
0 0.4 1.8
0 0.4 1.9
0 0.4 2
0 0.5 0
0 0.5 0.1
0 0.5 0.2
0 0.5 0.3
0 0.5 0.4
0 0.5 0.5
0 0.5 0.6
0 0.5 0.7
0 0.5 0.8
0 0.5 0.9
0 0.5 1
0 0.5 1.1
0 0.5 1.2
0 0.5 1.3
0 0.5 1.4
0 0.5 1.5
0 0.5 1.6
0 0.5 1.7
0 0.5 1.8
0 0.5 1.9
0 0.5 2
0 0.6 0
0 0.6 0.1
0 0.6 0.2
0 0.6 0.3
0 0.6 0.4
0 0.6 0.5
0 0.6 0.6
0 0.6 0.7
0 0.6 0.8
0 0.6 0.9
0 0.6 1
0 0.6 1.1
0 0.6 1.2
0 0.6 1.3
0 0.6 1.4
0 0.6 1.5
0 0.6 1.6
0 0.6 1.7
0 0.6 1.8
0 0.6 1.9
0 0.6 2
0 0.7 0
0 0.7 0.1
0 0.7 0.2
0 0.7 0.3
0 0.7 0.4
0 0.7 0.5
0 0.7 0.6
0 0.7 0.7
0 0.7 0.8
0 0.7 0.9
0 0.7 1
0 0.7 1.1
0 0.7 1.2
0 0.7 1.3
0 0.7 1.4
0 0.7 1.5
0 0.7 1.6
0 0.7 1.7
0 0.7 1.8
0 0.7 1.9
0 0.7 2
0 0.8 0
0 0.8 0.1
0 0.8 0.2
0 0.8 0.3
0 0.8 0.4
0 0.8 0.5
0 0.8 0.6
0 0.8 0.7
0 0.8 0.8
0 0.8 0.9
0 0.8 1
0 0.8 1.1
0 0.8 1.2
0 0.8 1.3
0 0.8 1.4
0 0.8 1.5
0 0.8 1.6
0 0.8 1.7
0 0.8 1.8
0 0.8 1.9
0 0.8 2
0 0.9 0
0 0.9 0.1
0 0.9 0.2
0 0.9 0.3
0 0.9 0.4
0 0.9 0.5
0 0.9 0.6
0 0.9 0.7
0 0.9 0.8
0 0.9 0.9
0 0.9 1
0 0.9 1.1
0 0.9 1.2
0 0.9 1.3
0 0.9 1.4
0 0.9 1.5
0 0.9 1.6
0 0.9 1.7
0 0.9 1.8
0 0.9 1.9
0 0.9 2
0 1 0
0 1 0.1
0 1 0.2
0 1 0.3
0 1 0.4
0 1 0.5
0 1 0.6
0 1 0.7
0 1 0.8
0 1 0.9
0 1 1
0 1 1.1
0 1 1.2
0 1 1.3
0 1 1.4
0 1 1.5
0 1 1.6
0 1 1.7
0 1 1.8
0 1 1.9
0 1 2
0 1.1 0
0 1.1 0.1
0 1.1 0.2
0 1.1 0.3
0 1.1 0.4
0 1.1 0.5
0 1.1 0.6
0 1.1 0.7
0 1.1 0.8
0 1.1 0.9
0 1.1 1
0 1.1 1.1
0 1.1 1.2
0 1.1 1.3
0 1.1 1.4
0 1.1 1.5
0 1.1 1.6
0 1.1 1.7
0 1.1 1.8
0 1.1 1.9
0 1.1 2
0 1.2 0
0 1.2 0.1
0 1.2 0.2
0 1.2 0.3
0 1.2 0.4
0 1.2 0.5
0 1.2 0.6
0 1.2 0.7
0 1.2 0.8
0 1.2 0.9
0 1.2 1
0 1.2 1.1
0 1.2 1.2
0 1.2 1.3
0 1.2 1.4
0 1.2 1.5
0 1.2 1.6
0 1.2 1.7
0 1.2 1.8
0 1.2 1.9
0 1.2 2
0 1.3 0
0 1.3 0.1
0 1.3 0.2
0 1.3 0.3
0 1.3 0.4
0 1.3 0.5
0 1.3 0.6
0 1.3 0.7
0 1.3 0.8
0 1.3 0.9
0 1.3 1
0 1.3 1.1
0 1.3 1.2
0 1.3 1.3
0 1.3 1.4
0 1.3 1.5
0 1.3 1.6
0 1.3 1.7
0 1.3 1.8
0 1.3 1.9
0 1.3 2
0 1.4 0
0 1.4 0.1
0 1.4 0.2
0 1.4 0.3
0 1.4 0.4
0 1.4 0.5
0 1.4 0.6
0 1.4 0.7
0 1.4 0.8
0 1.4 0.9
0 1.4 1
0 1.4 1.1
0 1.4 1.2
0 1.4 1.3
0 1.4 1.4
0 1.4 1.5
0 1.4 1.6
0 1.4 1.7
0 1.4 1.8
0 1.4 1.9
0 1.4 2
0 1.5 0
0 1.5 0.1
0 1.5 0.2
0 1.5 0.3
0 1.5 0.4
0 1.5 0.5
0 1.5 0.6
0 1.5 0.7
0 1.5 0.8
0 1.5 0.9
0 1.5 1
0 1.5 1.1
0 1.5 1.2
0 1.5 1.3
0 1.5 1.4
0 1.5 1.5
0 1.5 1.6
0 1.5 1.7
0 1.5 1.8
0 1.5 1.9
0 1.5 2
0 1.6 0
0 1.6 0.1
0 1.6 0.2
0 1.6 0.3
0 1.6 0.4
0 1.6 0.5
0 1.6 0.6
0 1.6 0.7
0 1.6 0.8
0 1.6 0.9
0 1.6 1
0 1.6 1.1
0 1.6 1.2
0 1.6 1.3
0 1.6 1.4
0 1.6 1.5
0 1.6 1.6
0 1.6 1.7
0 1.6 1.8
0 1.6 1.9
0 1.6 2
0 1.7 0
0 1.7 0.1
0 1.7 0.2
0 1.7 0.3
0 1.7 0.4
0 1.7 0.5
0 1.7 0.6
0 1.7 0.7
0 1.7 0.8
0 1.7 0.9
0 1.7 1
0 1.7 1.1
0 1.7 1.2
0 1.7 1.3
0 1.7 1.4
0 1.7 1.5
0 1.7 1.6
0 1.7 1.7
0 1.7 1.8
0 1.7 1.9
0 1.7 2
0 1.8 0
0 1.8 0.1
0 1.8 0.2
0 1.8 0.3
0 1.8 0.4
0 1.8 0.5
0 1.8 0.6
0 1.8 0.7
0 1.8 0.8
0 1.8 0.9
0 1.8 1
0 1.8 1.1
0 1.8 1.2
0 1.8 1.3
0 1.8 1.4
0 1.8 1.5
0 1.8 1.6
0 1.8 1.7
0 1.8 1.8
0 1.8 1.9
0 1.8 2
0 1.9 0
0 1.9 0.1
0 1.9 0.2
0 1.9 0.3
0 1.9 0.4
0 1.9 0.5
0 1.9 0.6
0 1.9 0.7
0 1.9 0.8
0 1.9 0.9
0 1.9 1
0 1.9 1.1
0 1.9 1.2
0 1.9 1.3
0 1.9 1.4
0 1.9 1.5
0 1.9 1.6
0 1.9 1.7
0 1.9 1.8
0 1.9 1.9
0 1.9 2
0 2 0
0 2 0.1
0 2 0.2
0 2 0.3
0 2 0.4
0 2 0.5
0 2 0.6
0 2 0.7
0 2 0.8
0 2 0.9
0 2 1
0 2 1.1
0 2 1.2
0 2 1.3
0 2 1.4
0 2 1.5
0 2 1.6
0 2 1.7
0 2 1.8
0 2 1.9
0 2 2
0.1 0 0
0.1 0 0.1
0.1 0 0.2
0.1 0 0.3
0.1 0 0.4
0.1 0 0.5
0.1 0 0.6
0.1 0 0.7
0.1 0 0.8
0.1 0 0.9
0.1 0 1
0.1 0 1.1
0.1 0 1.2
0.1 0 1.3
0.1 0 1.4
0.1 0 1.5
0.1 0 1.6
0.1 0 1.7
0.1 0 1.8
0.1 0 1.9
0.1 0 2
0.1 0.1 0
0.1 0.1 0.1
0.1 0.1 0.2
0.1 0.1 0.3
0.1 0.1 0.4
0.1 0.1 0.5
0.1 0.1 0.6
0.1 0.1 0.7
0.1 0.1 0.8
0.1 0.1 0.9
0.1 0.1 1
0.1 0.1 1.1
0.1 0.1 1.2
0.1 0.1 1.3
0.1 0.1 1.4
0.1 0.1 1.5
0.1 0.1 1.6
0.1 0.1 1.7
0.1 0.1 1.8
0.1 0.1 1.9
0.1 0.1 2
0.1 0.2 0
0.1 0.2 0.1
0.1 0.2 0.2
0.1 0.2 0.3
0.1 0.2 0.4
0.1 0.2 0.5
0.1 0.2 0.6
0.1 0.2 0.7
0.1 0.2 0.8
0.1 0.2 0.9
0.1 0.2 1
0.1 0.2 1.1
0.1 0.2 1.2
0.1 0.2 1.3
0.1 0.2 1.4
0.1 0.2 1.5
0.1 0.2 1.6
0.1 0.2 1.7
0.1 0.2 1.8
0.1 0.2 1.9
0.1 0.2 2
0.1 0.3 0
0.1 0.3 0.1
0.1 0.3 0.2
0.1 0.3 0.3
0.1 0.3 0.4
0.1 0.3 0.5
0.1 0.3 0.6
0.1 0.3 0.7
0.1 0.3 0.8
0.1 0.3 0.9
0.1 0.3 1
0.1 0.3 1.1
0.1 0.3 1.2
0.1 0.3 1.3
0.1 0.3 1.4
0.1 0.3 1.5
0.1 0.3 1.6
0.1 0.3 1.7
0.1 0.3 1.8
0.1 0.3 1.9
0.1 0.3 2
0.1 0.4 0
0.1 0.4 0.1
0.1 0.4 0.2
0.1 0.4 0.3
0.1 0.4 0.4
0.1 0.4 0.5
0.1 0.4 0.6
0.1 0.4 0.7
0.1 0.4 0.8
0.1 0.4 0.9
0.1 0.4 1
0.1 0.4 1.1
0.1 0.4 1.2
0.1 0.4 1.3
0.1 0.4 1.4
0.1 0.4 1.5
0.1 0.4 1.6
0.1 0.4 1.7
0.1 0.4 1.8
0.1 0.4 1.9
0.1 0.4 2
0.1 0.5 0
0.1 0.5 0.1
0.1 0.5 0.2
0.1 0.5 0.3
0.1 0.5 0.4
0.1 0.5 0.5
0.1 0.5 0.6
0.1 0.5 0.7
0.1 0.5 0.8
0.1 0.5 0.9
0.1 0.5 1
0.1 0.5 1.1
0.1 0.5 1.2
0.1 0.5 1.3
0.1 0.5 1.4
0.1 0.5 1.5
0.1 0.5 1.6
0.1 0.5 1.7
0.1 0.5 1.8
0.1 0.5 1.9
0.1 0.5 2
0.1 0.6 0
0.1 0.6 0.1
0.1 0.6 0.2
0.1 0.6 0.3
0.1 0.6 0.4
0.1 0.6 0.5
0.1 0.6 0.6
0.1 0.6 0.7
0.1 0.6 0.8
0.1 0.6 0.9
0.1 0.6 1
0.1 0.6 1.1
0.1 0.6 1.2
0.1 0.6 1.3
0.1 0.6 1.4
0.1 0.6 1.5
0.1 0.6 1.6
0.1 0.6 1.7
0.1 0.6 1.8
0.1 0.6 1.9
0.1 0.6 2
0.1 0.7 0
0.1 0.7 0.1
0.1 0.7 0.2
0.1 0.7 0.3
0.1 0.7 0.4
0.1 0.7 0.5
0.1 0.7 0.6
0.1 0.7 0.7
0.1 0.7 0.8
0.1 0.7 0.9
0.1 0.7 1
0.1 0.7 1.1
0.1 0.7 1.2
0.1 0.7 1.3
0.1 0.7 1.4
0.1 0.7 1.5
0.1 0.7 1.6
0.1 0.7 1.7
0.1 0.7 1.8
0.1 0.7 1.9
0.1 0.7 2
0.1 0.8 0
0.1 0.8 0.1
0.1 0.8 0.2
0.1 0.8 0.3
0.1 0.8 0.4
0.1 0.8 0.5
0.1 0.8 0.6
0.1 0.8 0.7
0.1 0.8 0.8
0.1 0.8 0.9
0.1 0.8 1
0.1 0.8 1.1
0.1 0.8 1.2
0.1 0.8 1.3
0.1 0.8 1.4
0.1 0.8 1.5
0.1 0.8 1.6
0.1 0.8 1.7
0.1 0.8 1.8
0.1 0.8 1.9
0.1 0.8 2
0.1 0.9 0
0.1 0.9 0.1
0.1 0.9 0.2
0.1 0.9 0.3
0.1 0.9 0.4
0.1 0.9 0.5
0.1 0.9 0.6
0.1 0.9 0.7
0.1 0.9 0.8
0.1 0.9 0.9
0.1 0.9 1
0.1 0.9 1.1
0.1 0.9 1.2
0.1 0.9 1.3
0.1 0.9 1.4
0.1 0.9 1.5
0.1 0.9 1.6
0.1 0.9 1.7
0.1 0.9 1.8
0.1 0.9 1.9
0.1 0.9 2
0.1 1 0
0.1 1 0.1
0.1 1 0.2
0.1 1 0.3
0.1 1 0.4
0.1 1 0.5
0.1 1 0.6
0.1 1 0.7
0.1 1 0.8
0.1 1 0.9
0.1 1 1
0.1 1 1.1
0.1 1 1.2
0.1 1 1.3
0.1 1 1.4
0.1 1 1.5
0.1 1 1.6
0.1 1 1.7
0.1 1 1.8
0.1 1 1.9
0.1 1 2
0.1 1.1 0
0.1 1.1 0.1
0.1 1.1 0.2
0.1 1.1 0.3
0.1 1.1 0.4
0.1 1.1 0.5
0.1 1.1 0.6
0.1 1.1 0.7
0.1 1.1 0.8
0.1 1.1 0.9
0.1 1.1 1
0.1 1.1 1.1
0.1 1.1 1.2
0.1 1.1 1.3
0.1 1.1 1.4
0.1 1.1 1.5
0.1 1.1 1.6
0.1 1.1 1.7
0.1 1.1 1.8
0.1 1.1 1.9
0.1 1.1 2
0.1 1.2 0
0.1 1.2 0.1
0.1 1.2 0.2
0.1 1.2 0.3
0.1 1.2 0.4
0.1 1.2 0.5
0.1 1.2 0.6
0.1 1.2 0.7
0.1 1.2 0.8
0.1 1.2 0.9
0.1 1.2 1
0.1 1.2 1.1
0.1 1.2 1.2
0.1 1.2 1.3
0.1 1.2 1.4
0.1 1.2 1.5
0.1 1.2 1.6
0.1 1.2 1.7
0.1 1.2 1.8
0.1 1.2 1.9
0.1 1.2 2
0.1 1.3 0
0.1 1.3 0.1
0.1 1.3 0.2
0.1 1.3 0.3
0.1 1.3 0.4
0.1 1.3 0.5
0.1 1.3 0.6
0.1 1.3 0.7
0.1 1.3 0.8
0.1 1.3 0.9
0.1 1.3 1
0.1 1.3 1.1
0.1 1.3 1.2
0.1 1.3 1.3
0.1 1.3 1.4
0.1 1.3 1.5
0.1 1.3 1.6
0.1 1.3 1.7
0.1 1.3 1.8
0.1 1.3 1.9
0.1 1.3 2
0.1 1.4 0
0.1 1.4 0.1
0.1 1.4 0.2
0.1 1.4 0.3
0.1 1.4 0.4
0.1 1.4 0.5
0.1 1.4 0.6
0.1 1.4 0.7
0.1 1.4 0.8
0.1 1.4 0.9
0.1 1.4 1
0.1 1.4 1.1
0.1 1.4 1.2
0.1 1.4 1.3
0.1 1.4 1.4
0.1 1.4 1.5
0.1 1.4 1.6
0.1 1.4 1.7
0.1 1.4 1.8
0.1 1.4 1.9
0.1 1.4 2
0.1 1.5 0
0.1 1.5 0.1
0.1 1.5 0.2
0.1 1.5 0.3
0.1 1.5 0.4
0.1 1.5 0.5
0.1 1.5 0.6
0.1 1.5 0.7
0.1 1.5 0.8
0.1 1.5 0.9
0.1 1.5 1
0.1 1.5 1.1
0.1 1.5 1.2
0.1 1.5 1.3
0.1 1.5 1.4
0.1 1.5 1.5
0.1 1.5 1.6
0.1 1.5 1.7
0.1 1.5 1.8
0.1 1.5 1.9
0.1 1.5 2
0.1 1.6 0
0.1 1.6 0.1
0.1 1.6 0.2
0.1 1.6 0.3
0.1 1.6 0.4
0.1 1.6 0.5
0.1 1.6 0.6
0.1 1.6 0.7
0.1 1.6 0.8
0.1 1.6 0.9
0.1 1.6 1
0.1 1.6 1.1
0.1 1.6 1.2
0.1 1.6 1.3
0.1 1.6 1.4
0.1 1.6 1.5
0.1 1.6 1.6
0.1 1.6 1.7
0.1 1.6 1.8
0.1 1.6 1.9
0.1 1.6 2
0.1 1.7 0
0.1 1.7 0.1
0.1 1.7 0.2
0.1 1.7 0.3
0.1 1.7 0.4
0.1 1.7 0.5
0.1 1.7 0.6
0.1 1.7 0.7
0.1 1.7 0.8
0.1 1.7 0.9
0.1 1.7 1
0.1 1.7 1.1
0.1 1.7 1.2
0.1 1.7 1.3
0.1 1.7 1.4
0.1 1.7 1.5
0.1 1.7 1.6
0.1 1.7 1.7
0.1 1.7 1.8
0.1 1.7 1.9
0.1 1.7 2
0.1 1.8 0
0.1 1.8 0.1
0.1 1.8 0.2
0.1 1.8 0.3
0.1 1.8 0.4
0.1 1.8 0.5
0.1 1.8 0.6
0.1 1.8 0.7
0.1 1.8 0.8
0.1 1.8 0.9
0.1 1.8 1
0.1 1.8 1.1
0.1 1.8 1.2
0.1 1.8 1.3
0.1 1.8 1.4
0.1 1.8 1.5
0.1 1.8 1.6
0.1 1.8 1.7
0.1 1.8 1.8
0.1 1.8 1.9
0.1 1.8 2
0.1 1.9 0
0.1 1.9 0.1
0.1 1.9 0.2
0.1 1.9 0.3
0.1 1.9 0.4
0.1 1.9 0.5
0.1 1.9 0.6
0.1 1.9 0.7
0.1 1.9 0.8
0.1 1.9 0.9
0.1 1.9 1
0.1 1.9 1.1
0.1 1.9 1.2
0.1 1.9 1.3
0.1 1.9 1.4
0.1 1.9 1.5
0.1 1.9 1.6
0.1 1.9 1.7
0.1 1.9 1.8
0.1 1.9 1.9
0.1 1.9 2
0.1 2 0
0.1 2 0.1
0.1 2 0.2
0.1 2 0.3
0.1 2 0.4
0.1 2 0.5
0.1 2 0.6
0.1 2 0.7
0.1 2 0.8
0.1 2 0.9
0.1 2 1
0.1 2 1.1
0.1 2 1.2
0.1 2 1.3
0.1 2 1.4
0.1 2 1.5
0.1 2 1.6
0.1 2 1.7
0.1 2 1.8
0.1 2 1.9
0.1 2 2
0.2 0 0
0.2 0 0.1
0.2 0 0.2
0.2 0 0.3
0.2 0 0.4
0.2 0 0.5
0.2 0 0.6
0.2 0 0.7
0.2 0 0.8
0.2 0 0.9
0.2 0 1
0.2 0 1.1
0.2 0 1.2
0.2 0 1.3
0.2 0 1.4
0.2 0 1.5
0.2 0 1.6
0.2 0 1.7
0.2 0 1.8
0.2 0 1.9
0.2 0 2
0.2 0.1 0
0.2 0.1 0.1
0.2 0.1 0.2
0.2 0.1 0.3
0.2 0.1 0.4
0.2 0.1 0.5
0.2 0.1 0.6
0.2 0.1 0.7
0.2 0.1 0.8
0.2 0.1 0.9
0.2 0.1 1
0.2 0.1 1.1
0.2 0.1 1.2
0.2 0.1 1.3
0.2 0.1 1.4
0.2 0.1 1.5
0.2 0.1 1.6
0.2 0.1 1.7
0.2 0.1 1.8
0.2 0.1 1.9
0.2 0.1 2
0.2 0.2 0
0.2 0.2 0.1
0.2 0.2 0.2
0.2 0.2 0.3
0.2 0.2 0.4
0.2 0.2 0.5
0.2 0.2 0.6
0.2 0.2 0.7
0.2 0.2 0.8
0.2 0.2 0.9
0.2 0.2 1
0.2 0.2 1.1
0.2 0.2 1.2
0.2 0.2 1.3
0.2 0.2 1.4
0.2 0.2 1.5
0.2 0.2 1.6
0.2 0.2 1.7
0.2 0.2 1.8
0.2 0.2 1.9
[...]
CELL_DATA 8000
SCALARS Phi_sigma_(3D) float 1
LOOKUP_TABLE default
0.0313359
0.0310667
0.0307736
0.0305629
0.0304007
0.0302829
0.0302043
0.0301517
0.0301279
0.0301113
0.0301027
0.0301038
0.0301292
0.0301905
0.030279
0.0303883
0.0305349
0.0307409
0.0310228
0.0312828
0.0317147
0.031318
0.0309679
0.0307722
0.0306104
0.0304934
0.0304207
0.0303666
0.0303541
0.0303368
0.0303268
0.0303206
0.0303407
0.0304077
0.0305003
0.0306018
0.0307387
0.030939
0.0312739
0.0316566
0.033064
0.0326757
0.0323365
0.0321558
0.0320099
0.0319116
0.0318482
0.0317927
0.0317787
0.0317648
0.0317645
0.0317586
0.0317714
0.0318301
0.0319184
0.0320197
0.032145
0.032323
0.0326429
0.033035
0.0354727
0.0352592
0.0350279
0.0348703
0.0347559
0.0346828
0.0346288
0.0345809
0.0345576
0.0345493
0.034558
0.0345615
0.034574
0.034616
0.0346878
0.0347841
0.0348945
0.035038
0.0352554
0.0354877
0.0383316
0.0382253
0.038091
0.0379802
0.0378955
0.037836
0.0377923
0.037759
0.0377406
0.0377346
0.0377394
0.037748
0.0377656
0.0378012
0.0378565
0.0379293
0.0380161
0.0381226
0.0382531
0.0383659
0.0413418
0.0412889
0.0412141
0.0411434
0.0410851
0.0410412
0.041009
0.0409866
0.0409742
0.0409708
0.0409751
0.0409853
0.0410035
0.041033
0.0410748
0.0411281
0.0411912
0.0412633
0.0413389
0.0413942
0.0444182
0.0443914
0.0443502
0.0443077
0.0442705
0.0442413
0.0442201
0.0442062
0.0441994
0.0441989
0.0442041
0.0442145
0.0442308
0.0442544
0.0442857
0.0443238
0.0443675
0.0444143
0.0444582
0.0444869
0.047534
0.0475204
0.0474985
0.0474746
0.0474531
0.0474361
0.0474244
0.0474177
0.0474158
0.0474182
0.0474245
0.0474345
0.0474485
0.047467
0.0474898
0.0475166
0.047546
0.0475757
0.0476015
0.0476172
0.0506715
0.0506651
0.0506545
0.0506429
0.0506327
0.0506254
0.0506215
0.0506208
0.0506232
0.0506283
0.0506357
0.0506452
0.050657
0.0506712
0.0506876
0.0507059
0.0507252
0.0507437
0.0507589
0.0507678
0.0538065
0.0538042
0.0538007
0.0537974
0.0537955
0.0537957
0.0537981
0.0538025
0.0538086
0.0538161
0.0538245
0.0538337
0.0538437
0.0538544
0.053866
0.053878
0.0538901
0.0539013
0.0539101
0.0539151
0.0569051
0.0569055
0.0569067
0.0569092
0.0569134
0.0569194
0.0569269
0.0569356
0.056945
0.0569546
0.0569639
0.0569729
0.0569815
0.0569896
0.0569974
0.0570049
0.057012
0.0570182
0.0570229
0.0570255
0.0599243
0.0599265
0.0599309
0.0599377
0.0599465
0.0599571
0.0599689
0.0599812
0.0599934
0.0600048
0.0600151
0.060024
0.0600315
0.0600376
0.0600426
0.0600468
0.0600502
0.060053
0.060055
0.0600561
0.0628134
0.0628169
0.0628238
0.0628338
0.0628462
0.0628606
0.0628759
0.0628913
0.0629059
0.0629191
0.0629302
0.0629391
0.0629457
0.0629503
0.0629532
0.0629548
0.0629555
0.0629558
0.0629559
0.062956
0.0655169
0.0655214
0.0655302
0.0655427
0.0655581
0.0655755
0.0655938
0.0656118
0.0656286
0.0656432
0.0656552
0.0656642
0.0656702
0.0656735
0.0656747
0.0656743
0.065673
0.0656715
0.0656702
0.0656695
0.0679767
0.0679819
0.0679922
0.0680068
0.0680247
0.0680447
0.0680654
0.0680857
0.0681043
0.0681202
0.0681329
0.068142
0.0681475
0.0681499
0.0681497
0.0681477
0.0681448
0.0681419
0.0681395
0.0681383
0.070135
0.0701409
0.0701524
0.0701686
0.0701885
0.0702106
0.0702335
0.0702556
0.0702758
0.0702928
0.0703061
0.0703153
0.0703204
0.070322
0.0703207
0.0703175
0.0703133
0.0703093
0.0703061
0.0703044
0.0719376
0.071944
0.0719565
0.071974
0.0719955
0.0720193
0.0720439
0.0720676
0.0720889
0.0721069
0.0721206
0.0721299
0.0721348
0.0721357
0.0721335
0.0721293
0.0721242
0.0721192
0.0721154
0.0721133
0.0733365
0.0733433
0.0733565
0.0733751
0.0733978
0.0734229
0.0734487
0.0734735
0.0734958
0.0735144
0.0735286
0.0735379
0.0735425
0.0735429
0.0735401
0.0735351
0.0735292
0.0735236
0.0735193
0.073517
0.0742928
0.0742998
0.0743134
0.0743327
0.0743562
0.0743821
0.0744088
0.0744344
0.0744573
0.0744764
0.0744908
0.0745001
0.0745045
0.0745047
0.0745014
0.0744959
0.0744894
0.0744834
0.0744787
0.0744762
0.0747784
0.0747855
0.0747994
0.074819
0.0748429
0.0748693
0.0748964
0.0749223
0.0749456
0.0749649
0.0749794
0.0749887
0.0749931
0.074993
0.0749894
0.0749837
0.074977
0.0749707
0.0749659
0.0749633
0.0317435
0.0313528
0.031006
0.0308109
0.0306502
0.0305349
0.0304626
0.0304078
0.0303943
0.0303773
0.0303687
0.0303629
0.0303823
0.0304482
0.0305407
0.0306433
0.0307801
0.0309785
0.0313097
0.031689
0.0316637
0.0306825
0.030151
0.030073
0.0298817
0.0297455
0.029694
0.0296163
0.0296627
0.0296289
0.0296115
0.0295752
0.0295776
0.0296807
0.0298005
0.0298698
0.0299828
0.0301321
0.0306263
0.0315588
0.0329355
0.0319381
0.0313874
0.0313184
0.0311424
0.0310487
0.0310108
0.0309117
0.0309464
0.0309167
0.0309369
0.0308974
0.0308763
0.0309608
0.0310792
0.0311767
0.0312787
0.0313821
0.0318645
0.0328955
0.0358117
0.0354668
0.0351515
0.0349986
0.0348854
0.0348447
0.0348017
0.0347275
0.0346994
0.0346921
0.034736
0.0347294
0.0347164
0.0347486
0.0348274
0.0349534
0.0350556
0.0351631
0.0354271
0.0358684
0.0388945
0.0387622
0.0386125
0.0385039
0.0384221
0.0383683
0.0383279
0.0382933
0.0382762
0.0382712
0.0382798
0.0382865
0.0383004
0.0383347
0.03839
0.0384635
0.0385462
0.0386473
0.0387894
0.0389363
0.0419684
0.0419114
0.0418352
0.0417667
0.0417111
0.0416696
0.0416396
0.0416185
0.0416076
0.041605
0.0416098
0.0416196
0.0416371
0.0416659
0.0417066
0.041758
0.0418184
0.0418883
0.0419651
0.0420253
0.045074
0.0450472
0.0450071
0.0449666
0.0449315
0.0449042
0.0448847
0.0448723
0.0448667
0.0448669
0.0448724
0.0448828
0.0448989
0.0449219
0.0449521
0.0449887
0.0450305
0.0450756
0.0451186
0.0451474
0.0482206
0.0482075
0.0481868
0.0481646
0.0481448
0.0481295
0.0481192
0.0481138
0.048113
0.0481161
0.0481228
0.0481329
0.0481468
0.0481647
0.0481868
0.0482124
0.0482405
0.0482689
0.0482937
0.048309
0.0513989
0.051393
0.0513835
0.0513732
0.0513646
0.0513587
0.0513562
0.0513568
0.0513602
0.051366
0.0513739
0.0513836
0.0513953
0.0514091
0.0514249
0.0514423
0.0514606
0.0514782
0.0514927
0.0515012
0.0545855
0.0545838
0.0545812
0.0545791
0.0545785
0.0545801
0.0545839
0.0545896
0.0545968
0.054605
0.0546139
0.0546234
0.0546333
0.0546438
0.0546548
0.0546662
0.0546775
0.0546879
0.0546962
0.0547009
0.0577448
0.0577456
0.0577477
0.0577514
0.0577569
0.0577643
0.0577733
0.0577834
0.0577939
0.0578043
0.0578143
0.0578236
0.0578321
0.05784
0.0578473
0.0578542
0.0578606
0.0578662
0.0578704
0.0578728
0.060831
0.0608337
0.060839
0.060847
0.0608572
0.0608694
0.0608827
0.0608965
0.0609099
0.0609224
0.0609333
0.0609425
0.06095
0.0609559
0.0609604
0.060964
0.0609668
0.0609689
0.0609705
0.0609713
0.0637909
0.0637949
0.0638028
0.063814
0.0638281
0.0638442
0.0638612
0.0638782
0.0638942
0.0639084
0.0639203
0.0639296
0.0639362
0.0639405
0.0639429
0.0639438
0.0639439
0.0639436
0.0639432
0.063943
0.066566
0.066571
0.0665808
0.0665948
0.066612
0.0666313
0.0666515
0.0666713
0.0666896
0.0667054
0.0667182
0.0667275
0.0667336
0.0667366
0.0667372
0.0667361
0.066734
0.0667318
0.06673
0.066729
0.069095
0.0691008
0.0691123
0.0691285
0.0691483
0.0691704
0.0691932
0.0692155
0.0692357
0.069253
0.0692665
0.069276
0.0692816
0.0692836
0.0692827
0.0692799
0.0692762
0.0692724
0.0692695
0.0692679
0.0713172
0.0713237
0.0713365
0.0713545
0.0713765
0.0714009
0.0714261
0.0714504
0.0714723
0.0714908
0.071505
0.0715146
0.0715198
0.0715209
0.0715189
0.0715147
0.0715096
0.0715046
0.0715008
0.0714987
0.0731753
0.0731824
0.0731962
0.0732157
0.0732395
0.0732658
0.0732928
0.0733187
0.0733421
0.0733615
0.0733763
0.073386
0.0733908
0.0733913
0.0733883
0.073383
0.0733768
0.0733709
0.0733663
0.0733639
0.0746186
0.0746261
0.0746408
0.0746614
0.0746865
0.0747142
0.0747426
0.0747699
0.0747942
0.0748145
0.0748296
0.0748394
0.074844
0.0748439
0.0748401
0.074834
0.074827
0.0748203
0.0748152
0.0748124
0.0756058
0.0756136
0.0756288
0.0756502
0.0756761
0.0757048
0.0757342
0.0757623
0.0757874
0.0758081
0.0758235
0.0758334
0.0758377
0.0758372
0.075833
0.0758263
0.0758186
0.0758115
0.075806
0.0758031
0.0761073
0.0761153
0.0761307
0.0761525
0.0761789
0.0762081
0.076238
0.0762665
0.0762919
0.0763129
0.0763284
0.0763383
0.0763425
0.0763418
0.0763373
0.0763303
0.0763224
0.0763149
0.0763093
0.0763062
0.0331454
0.0327836
0.0324547
0.0322721
0.0321299
0.0320386
0.0319762
0.0319177
0.0318988
0.0318863
0.0318921
0.0318876
0.0318976
0.0319517
0.0320392
0.0321464
0.032272
0.032444
0.0327514
0.0331296
0.033017
0.0321213
0.0315781
0.0314789
0.0313134
0.031253
0.0312174
0.0311024
0.0311124
0.0310886
0.0311413
0.0311051
0.0310689
0.0311322
0.0312477
0.0313814
0.0314869
0.0315738
0.0320267
0.0330327
0.0343729
0.0334402
0.0329233
0.0328612
0.032701
0.0326141
0.0325798
0.0324905
0.032525
0.0324987
0.032516
0.0324791
0.0324609
0.0325414
0.0326519
0.0327395
0.0328312
0.032928
0.033384
0.0343454
0.037224
0.0368036
0.0365427
0.036455
0.0363381
0.0362266
0.0361785
0.0361571
0.0361806
0.0361649
0.0361277
0.0361204
0.036151
0.0362249
0.0362977
0.0363293
0.0364157
0.0365625
0.0368377
0.0371743
0.0402164
0.0400784
0.0399449
0.0398552
0.0397787
0.0397179
0.0396798
0.0396576
0.0396519
0.0396461
0.039642
0.0396477
0.0396691
0.0397094
0.0397595
0.039813
0.039886
0.0399861
0.0401212
0.0402469
0.0432674
0.0432129
0.0431444
0.0430846
0.0430345
0.0429957
0.042969
0.0429528
0.0429458
0.0429442
0.0429474
0.042957
0.0429753
0.043004
0.0430413
0.0430859
0.0431402
0.0432051
0.0432758
0.0433295
0.0463901
0.0463656
0.0463301
0.0462947
0.0462641
0.0462404
0.0462242
0.0462148
0.0462116
0.0462132
0.046219
0.0462294
0.0462453
0.0462673
0.0462951
0.0463281
0.046366
0.0464071
0.0464462
0.0464722
0.0495879
0.0495765
0.0495587
0.04954
0.0495238
0.0495118
0.0495044
0.0495016
0.0495028
0.0495073
0.0495148
0.0495251
0.0495387
0.0495557
0.049576
0.0495993
0.0496247
0.0496503
0.0496728
0.0496865
0.0528468
0.0528421
0.0528348
0.0528273
0.0528216
0.0528187
0.0528189
0.052822
0.0528274
0.0528347
0.0528434
0.0528535
0.052865
0.052878
0.0528925
0.0529082
0.0529245
0.0529402
0.0529531
0.0529606
0.0561381
0.0561374
0.0561366
0.0561369
0.0561392
0.0561436
0.0561501
0.0561583
0.0561676
0.0561774
0.0561874
0.0561973
0.0562071
0.0562169
0.0562269
0.0562368
0.0562466
0.0562556
0.0562626
0.0562666
0.0594208
0.0594226
0.0594263
0.0594324
0.0594407
0.0594511
0.059463
0.0594757
0.0594884
0.0595006
0.0595118
0.0595216
0.0595301
0.0595374
0.0595438
0.0595494
0.0595544
0.0595587
0.0595619
0.0595637
0.0626437
0.0626473
0.0626544
0.0626649
0.0626781
0.0626934
0.0627099
0.0627266
0.0627425
0.0627569
0.0627692
0.0627791
0.0627865
0.0627918
0.0627954
0.0627976
0.062799
0.0627999
0.0628005
0.0628008
0.0657479
0.0657529
0.0657627
0.0657767
0.065794
0.0658135
0.0658341
0.0658543
0.0658731
0.0658895
0.0659029
0.0659129
0.0659195
0.0659232
0.0659244
0.065924
0.0659226
0.0659209
0.0659195
0.0659187
0.0686688
0.068675
0.068687
0.068704
0.0687248
0.068748
0.0687721
0.0687955
0.0688169
0.0688351
0.0688495
0.0688597
0.0688657
0.068868
0.0688673
0.0688646
0.0688609
0.0688572
0.0688542
0.0688526
0.0713392
0.0713464
0.0713602
0.0713798
0.0714036
0.07143
0.0714572
0.0714835
0.0715072
0.0715271
0.0715424
0.0715527
0.0715582
0.0715593
0.071557
0.0715524
0.0715468
0.0715413
0.0715371
0.0715348
0.073692
0.0737
0.0737154
0.0737371
0.0737635
0.0737927
0.0738226
0.0738513
0.0738769
0.0738983
0.0739144
0.0739249
0.0739299
0.07393
0.0739263
0.0739201
0.0739129
0.073906
0.0739007
0.0738979
0.0756637
0.0756724
0.0756891
0.0757126
0.0757411
0.0757725
0.0758047
0.0758354
0.0758627
0.0758852
0.075902
0.0759126
0.0759172
0.0759165
0.0759117
0.0759041
0.0758956
0.0758875
0.0758814
0.0758781
0.077198
0.0772071
0.0772248
0.0772497
0.0772799
0.0773131
0.0773469
0.0773792
0.0774078
0.0774312
0.0774485
0.0774591
0.0774634
0.0774621
0.0774563
0.0774478
0.0774381
0.0774292
0.0774224
0.0774187
0.0782487
0.0782582
0.0782766
0.0783024
0.0783337
0.0783681
0.0784031
0.0784364
0.0784658
0.0784899
0.0785075
0.0785182
0.0785222
0.0785204
0.078514
0.0785047
0.0784944
0.0784848
0.0784775
0.0784736
0.078783
0.0787926
0.0788113
0.0788376
0.0788695
0.0789045
0.0789401
0.0789739
0.0790038
0.0790281
0.0790459
0.0790566
0.0790605
0.0790584
0.0790517
0.079042
0.0790313
0.0790214
0.0790139
0.0790098
0.0355826
0.035384
0.035169
0.0350181
0.0349048
0.0348266
0.0347716
0.0347288
0.0347088
0.0346996
0.0347019
0.034706
0.0347232
0.034768
0.0348377
0.0349262
0.0350347
0.0351794
0.035386
0.0355901
0.035961
0.0356423
0.0353681
0.035228
0.0351143
0.0350427
0.0349939
0.0349441
0.0349308
0.0349215
0.0349302
0.0349272
0.0349352
0.034982
0.035057
0.0351469
0.0352476
0.0353812
0.0356368
0.0359738
0.037174
0.0367524
0.0364593
0.0363571
0.0362446
0.036173
0.0361324
0.0360824
0.0360854
0.0360731
0.0360792
0.0360698
0.0360754
0.0361291
0.0362047
0.0362803
0.036368
0.0364808
0.0367513
0.0371829
0.0395195
0.0393211
0.0391474
0.0390482
0.0389623
0.0388954
0.0388551
0.03883
0.0388271
0.0388201
0.0388147
0.0388171
0.0388374
0.0388823
0.038938
0.0389944
0.0390721
0.0391836
0.0393563
0.039541
0.04225
0.0421634
0.0420668
0.0419924
0.0419312
0.0418839
0.0418528
0.0418347
0.0418284
0.0418255
0.0418263
0.0418344
0.0418541
0.0418873
0.0419297
0.0419787
0.0420412
0.0421219
0.0422201
0.0423026
0.0452083
0.0451689
0.0451165
0.0450686
0.0450283
0.0449973
0.0449765
0.0449646
0.0449603
0.0449607
0.0449654
0.0449757
0.0449931
0.0450187
0.0450511
0.0450898
0.0451361
0.0451896
0.0452451
0.0452849
0.0483396
0.0483209
0.0482934
0.0482657
0.048242
0.0482242
0.0482128
0.0482074
0.048207
0.0482106
0.0482176
0.0482284
0.0482435
0.0482634
0.0482878
0.0483164
0.0483487
0.0483831
0.0484151
0.0484357
0.0516132
0.0516047
0.0515916
0.0515782
0.0515672
0.05156
0.051557
0.0515578
0.0515619
0.0515684
0.0515771
0.0515878
0.0516008
0.0516163
0.0516341
0.0516541
0.0516757
0.0516972
0.0517157
0.0517269
0.0549971
0.0549943
0.0549902
0.0549868
0.0549856
0.0549871
0.0549913
0.0549979
0.0550063
0.0550157
0.0550258
0.0550364
0.0550476
0.0550594
0.055072
0.0550852
0.0550986
0.0551114
0.0551219
0.055128
0.058451
0.0584517
0.0584537
0.0584577
0.0584641
0.0584728
0.0584834
0.0584953
0.0585077
0.0585199
0.0585314
0.058542
0.0585516
0.0585604
0.0585687
0.0585766
0.058584
0.0585907
0.058596
0.058599
0.0619248
0.061928
0.0619344
0.0619441
0.0619566
0.0619715
0.0619878
0.0620045
0.0620207
0.0620355
0.0620484
0.0620591
0.0620674
0.0620738
0.0620786
0.0620822
0.0620851
0.0620874
0.0620891
0.06209
0.0653591
0.0653642
0.0653741
0.0653884
0.0654062
0.0654264
0.0654478
0.065469
0.0654887
0.0655061
0.0655203
0.0655311
0.0655385
0.0655428
0.0655447
0.0655449
0.0655441
0.0655429
0.065542
0.0655414
0.0686865
0.0686931
0.068706
0.0687243
0.0687467
0.0687717
0.0687977
0.068823
0.0688461
0.0688658
0.0688814
0.0688924
0.068899
0.0689015
0.0689009
0.0688981
0.0688943
0.0688904
0.0688873
0.0688856
0.0718336
0.0718415
0.071857
0.0718788
0.0719053
0.0719347
0.0719649
0.071994
0.0720202
0.0720422
0.072059
0.0720703
0.0720761
0.0720771
0.0720743
0.0720689
0.0720624
0.0720561
0.0720513
0.0720487
0.0747235
0.0747327
0.0747504
0.0747753
0.0748055
0.0748388
0.0748729
0.0749055
0.0749345
0.0749585
0.0749765
0.074988
0.0749931
0.0749927
0.0749879
0.0749803
0.0749714
0.0749631
0.0749567
0.0749533
0.0772794
0.0772896
0.0773093
0.077337
0.0773705
0.0774073
0.0774447
0.0774803
0.0775119
0.0775377
0.0775566
0.0775683
0.0775729
0.0775712
0.0775647
0.077555
0.0775441
0.077534
0.0775263
0.0775221
0.0794282
0.0794393
0.0794606
0.0794906
0.0795269
0.0795666
0.0796069
0.0796451
0.0796787
0.079706
0.0797258
0.0797376
0.0797417
0.0797389
0.0797309
0.0797195
0.0797069
0.0796952
0.0796863
0.0796816
0.0811044
0.0811162
0.0811389
0.0811707
0.0812091
0.0812511
0.0812936
0.0813338
0.0813691
0.0813976
0.081418
0.0814299
0.0814335
0.0814299
0.0814206
0.0814078
0.0813938
0.081381
0.0813712
0.081366
0.0822545
0.0822667
0.0822903
0.0823234
0.0823632
0.0824068
0.0824509
0.0824925
0.0825289
0.0825581
0.082579
0.0825909
0.0825942
0.0825899
0.0825798
0.082566
0.0825511
0.0825373
0.0825269
0.0825214
0.0828399
0.0828524
0.0828764
0.0829101
0.0829507
0.0829951
0.08304
0.0830822
0.0831192
0.0831488
0.0831699
0.0831818
0.0831849
0.0831803
0.0831697
0.0831555
0.08314
0.0831258
0.0831151
0.0831093
0.0384164
0.0383168
0.038191
0.0380849
0.0380013
0.0379399
0.037896
0.0378651
0.0378485
0.0378419
0.0378441
0.0378526
0.0378723
0.0379091
0.037963
0.0380319
0.0381166
0.0382215
0.0383454
0.0384465
0.0389721
0.0388475
0.038708
0.0386042
0.038523
0.0384647
0.0384236
0.0383931
0.0383789
0.0383732
0.0383763
0.0383833
0.038401
0.0384376
0.0384913
0.0385584
0.0386394
0.0387423
0.0388784
0.0390063
0.0402316
0.0400943
0.0399568
0.0398651
0.0397905
0.0397368
0.0397004
0.0396735
0.039664
0.0396593
0.0396621
0.039668
0.0396849
0.0397212
0.039772
0.0398322
0.0399053
0.0399994
0.0401338
0.0402727
0.0422572
0.0421707
0.0420733
0.0419986
0.041938
0.0418922
0.0418616
0.0418425
0.0418354
0.0418328
0.0418349
0.0418431
0.0418619
0.0418942
0.0419368
0.0419869
0.0420495
0.0421291
0.0422273
0.0423122
0.0447936
0.0447465
0.0446859
0.0446325
0.0445883
0.0445547
0.0445322
0.0445192
0.0445146
0.0445147
0.0445191
0.0445291
0.044547
0.0445738
0.0446081
0.0446492
0.0446988
0.0447577
0.0448211
0.0448683
0.0476896
0.0476651
0.0476302
0.0475963
0.0475678
0.0475463
0.0475325
0.0475256
0.0475245
0.0475276
0.0475343
0.0475451
0.0475612
0.0475829
0.0476098
0.0476416
0.0476784
0.0477189
0.0477581
0.0477842
0.0508621
0.0508499
0.0508316
0.0508131
0.0507978
0.0507873
0.0507819
0.0507812
0.0507844
0.0507905
0.0507991
0.0508102
0.0508243
0.0508416
0.050862
0.0508853
0.050911
0.0509376
0.0509613
0.050976
0.0542553
0.0542503
0.0542429
0.0542359
0.0542315
0.0542304
0.0542328
0.0542382
0.0542459
0.0542551
0.0542654
0.0542766
0.0542888
0.0543023
0.0543171
0.0543331
0.05435
0.0543665
0.0543804
0.0543887
0.0578199
0.0578194
0.0578195
0.0578213
0.0578257
0.0578328
0.0578424
0.0578537
0.0578659
0.0578782
0.05789
0.0579013
0.0579119
0.0579222
0.0579322
0.0579422
0.0579521
0.0579613
0.0579688
0.0579731
0.0615027
0.0615054
0.061511
0.0615197
0.0615316
0.061546
0.0615622
0.0615791
0.0615956
0.061611
0.0616245
0.0616359
0.0616452
0.0616527
0.0616587
0.0616637
0.061668
0.0616718
0.0616747
0.0616764
0.065243
0.0652481
0.0652582
0.0652727
0.0652911
0.065312
0.0653344
0.0653566
0.0653775
0.0653959
0.0654111
0.0654227
0.0654308
0.0654359
0.0654384
0.0654392
0.065439
0.0654385
0.065438
0.0654378
0.0689712
0.0689783
0.0689922
0.0690119
0.0690361
0.0690631
0.0690913
0.0691187
0.0691438
0.0691652
0.069182
0.069194
0.0692011
0.0692039
0.0692033
0.0692004
0.0691963
0.0691922
0.069189
0.0691873
0.072609
0.0726179
0.0726352
0.0726596
0.0726893
0.0727221
0.0727558
0.0727882
0.0728173
0.0728416
0.0728602
0.0728724
0.0728786
0.0728794
0.0728759
0.0728696
0.072862
0.0728548
0.0728492
0.0728462
0.0760711
0.0760817
0.0761022
0.076131
0.0761658
0.076204
0.076243
0.0762802
0.0763132
0.0763403
0.0763604
0.076373
0.0763783
0.0763771
0.0763709
0.0763614
0.0763507
0.0763405
0.0763328
0.0763286
0.0792679
0.07928
0.0793035
0.0793362
0.0793758
0.0794191
0.0794631
0.0795047
0.0795413
0.079571
0.0795926
0.0796055
0.0796099
0.0796069
0.0795982
0.0795857
0.079572
0.0795592
0.0795494
0.0795442
0.0821087
0.0821222
0.0821483
0.0821847
0.0822286
0.0822765
0.0823249
0.0823705
0.0824104
0.0824425
0.0824653
0.0824784
0.082482
0.0824774
0.0824663
0.0824511
0.0824346
0.0824193
0.0824078
0.0824016
0.0845065
0.0845212
0.0845496
0.0845892
0.0846368
0.0846887
0.0847409
0.0847899
0.0848326
0.0848667
0.0848906
0.0849038
0.0849067
0.0849005
0.0848873
0.0848698
0.0848508
0.0848334
0.0848203
0.0848132
0.086383
0.0863987
0.0864289
0.086471
0.0865216
0.0865766
0.0866319
0.0866836
0.0867285
0.0867641
0.0867888
0.086802
0.0868043
0.0867969
0.086782
0.0867625
0.0867416
0.0867225
0.086708
0.0867003
0.0876734
0.0876898
0.0877213
0.0877652
0.0878178
0.087875
0.0879324
0.0879859
0.0880323
0.088069
0.0880942
0.0881075
0.0881092
0.0881009
0.0880848
0.0880639
0.0880416
0.0880213
0.0880059
0.0879977
0.0883312
0.0883479
0.08838
0.0884248
0.0884785
0.0885368
0.0885952
0.0886498
0.0886969
0.0887341
0.0887596
0.0887729
0.0887744
0.0887656
0.0887488
0.0887272
0.0887042
0.0886832
0.0886673
0.0886588
0.0414028
0.0413529
0.0412818
0.0412137
0.0411565
0.0411125
0.0410805
0.0410589
0.0410473
0.0410437
0.0410471
0.0410573
0.041076
0.0411057
0.0411466
0.0411981
0.0412595