# vtk DataFile Version 2.0
Pressure 3D1D coupled problem
ASCII
DATASET UNSTRUCTURED_GRID
POINTS 9261 float
0 0 0
0 0 0.1
0 0 0.2
0 0 0.3
0 0 0.4
0 0 0.5
0 0 0.6
0 0 0.7
0 0 0.8
0 0 0.9
0 0 1
0 0 1.1
0 0 1.2
0 0 1.3
0 0 1.4
0 0 1.5
0 0 1.6
0 0 1.7
0 0 1.8
0 0 1.9
0 0 2
0 0.1 0
0 0.1 0.1
0 0.1 0.2
0 0.1 0.3
0 0.1 0.4
0 0.1 0.5
0 0.1 0.6
0 0.1 0.7
0 0.1 0.8
0 0.1 0.9
0 0.1 1
0 0.1 1.1
0 0.1 1.2
0 0.1 1.3
0 0.1 1.4
0 0.1 1.5
0 0.1 1.6
0 0.1 1.7
0 0.1 1.8
0 0.1 1.9
0 0.1 2
0 0.2 0
0 0.2 0.1
0 0.2 0.2
0 0.2 0.3
0 0.2 0.4
0 0.2 0.5
0 0.2 0.6
0 0.2 0.7
0 0.2 0.8
0 0.2 0.9
0 0.2 1
0 0.2 1.1
0 0.2 1.2
0 0.2 1.3
0 0.2 1.4
0 0.2 1.5
0 0.2 1.6
0 0.2 1.7
0 0.2 1.8
0 0.2 1.9
0 0.2 2
0 0.3 0
0 0.3 0.1
0 0.3 0.2
0 0.3 0.3
0 0.3 0.4
0 0.3 0.5
0 0.3 0.6
0 0.3 0.7
0 0.3 0.8
0 0.3 0.9
0 0.3 1
0 0.3 1.1
0 0.3 1.2
0 0.3 1.3
0 0.3 1.4
0 0.3 1.5
0 0.3 1.6
0 0.3 1.7
0 0.3 1.8
0 0.3 1.9
0 0.3 2
0 0.4 0
0 0.4 0.1
0 0.4 0.2
0 0.4 0.3
0 0.4 0.4
0 0.4 0.5
0 0.4 0.6
0 0.4 0.7
0 0.4 0.8
0 0.4 0.9
0 0.4 1
0 0.4 1.1
0 0.4 1.2
0 0.4 1.3
0 0.4 1.4
0 0.4 1.5
0 0.4 1.6
0 0.4 1.7
0 0.4 1.8
0 0.4 1.9
0 0.4 2
0 0.5 0
0 0.5 0.1
0 0.5 0.2
0 0.5 0.3
0 0.5 0.4
0 0.5 0.5
0 0.5 0.6
0 0.5 0.7
0 0.5 0.8
0 0.5 0.9
0 0.5 1
0 0.5 1.1
0 0.5 1.2
0 0.5 1.3
0 0.5 1.4
0 0.5 1.5
0 0.5 1.6
0 0.5 1.7
0 0.5 1.8
0 0.5 1.9
0 0.5 2
0 0.6 0
0 0.6 0.1
0 0.6 0.2
0 0.6 0.3
0 0.6 0.4
0 0.6 0.5
0 0.6 0.6
0 0.6 0.7
0 0.6 0.8
0 0.6 0.9
0 0.6 1
0 0.6 1.1
0 0.6 1.2
0 0.6 1.3
0 0.6 1.4
0 0.6 1.5
0 0.6 1.6
0 0.6 1.7
0 0.6 1.8
0 0.6 1.9
0 0.6 2
0 0.7 0
0 0.7 0.1
0 0.7 0.2
0 0.7 0.3
0 0.7 0.4
0 0.7 0.5
0 0.7 0.6
0 0.7 0.7
0 0.7 0.8
0 0.7 0.9
0 0.7 1
0 0.7 1.1
0 0.7 1.2
0 0.7 1.3
0 0.7 1.4
0 0.7 1.5
0 0.7 1.6
0 0.7 1.7
0 0.7 1.8
0 0.7 1.9
0 0.7 2
0 0.8 0
0 0.8 0.1
0 0.8 0.2
0 0.8 0.3
0 0.8 0.4
0 0.8 0.5
0 0.8 0.6
0 0.8 0.7
0 0.8 0.8
0 0.8 0.9
0 0.8 1
0 0.8 1.1
0 0.8 1.2
0 0.8 1.3
0 0.8 1.4
0 0.8 1.5
0 0.8 1.6
0 0.8 1.7
0 0.8 1.8
0 0.8 1.9
0 0.8 2
0 0.9 0
0 0.9 0.1
0 0.9 0.2
0 0.9 0.3
0 0.9 0.4
0 0.9 0.5
0 0.9 0.6
0 0.9 0.7
0 0.9 0.8
0 0.9 0.9
0 0.9 1
0 0.9 1.1
0 0.9 1.2
0 0.9 1.3
0 0.9 1.4
0 0.9 1.5
0 0.9 1.6
0 0.9 1.7
0 0.9 1.8
0 0.9 1.9
0 0.9 2
0 1 0
0 1 0.1
0 1 0.2
0 1 0.3
0 1 0.4
0 1 0.5
0 1 0.6
0 1 0.7
0 1 0.8
0 1 0.9
0 1 1
0 1 1.1
0 1 1.2
0 1 1.3
0 1 1.4
0 1 1.5
0 1 1.6
0 1 1.7
0 1 1.8
0 1 1.9
0 1 2
0 1.1 0
0 1.1 0.1
0 1.1 0.2
0 1.1 0.3
0 1.1 0.4
0 1.1 0.5
0 1.1 0.6
0 1.1 0.7
0 1.1 0.8
0 1.1 0.9
0 1.1 1
0 1.1 1.1
0 1.1 1.2
0 1.1 1.3
0 1.1 1.4
0 1.1 1.5
0 1.1 1.6
0 1.1 1.7
0 1.1 1.8
0 1.1 1.9
0 1.1 2
0 1.2 0
0 1.2 0.1
0 1.2 0.2
0 1.2 0.3
0 1.2 0.4
0 1.2 0.5
0 1.2 0.6
0 1.2 0.7
0 1.2 0.8
0 1.2 0.9
0 1.2 1
0 1.2 1.1
0 1.2 1.2
0 1.2 1.3
0 1.2 1.4
0 1.2 1.5
0 1.2 1.6
0 1.2 1.7
0 1.2 1.8
0 1.2 1.9
0 1.2 2
0 1.3 0
0 1.3 0.1
0 1.3 0.2
0 1.3 0.3
0 1.3 0.4
0 1.3 0.5
0 1.3 0.6
0 1.3 0.7
0 1.3 0.8
0 1.3 0.9
0 1.3 1
0 1.3 1.1
0 1.3 1.2
0 1.3 1.3
0 1.3 1.4
0 1.3 1.5
0 1.3 1.6
0 1.3 1.7
0 1.3 1.8
0 1.3 1.9
0 1.3 2
0 1.4 0
0 1.4 0.1
0 1.4 0.2
0 1.4 0.3
0 1.4 0.4
0 1.4 0.5
0 1.4 0.6
0 1.4 0.7
0 1.4 0.8
0 1.4 0.9
0 1.4 1
0 1.4 1.1
0 1.4 1.2
0 1.4 1.3
0 1.4 1.4
0 1.4 1.5
0 1.4 1.6
0 1.4 1.7
0 1.4 1.8
0 1.4 1.9
0 1.4 2
0 1.5 0
0 1.5 0.1
0 1.5 0.2
0 1.5 0.3
0 1.5 0.4
0 1.5 0.5
0 1.5 0.6
0 1.5 0.7
0 1.5 0.8
0 1.5 0.9
0 1.5 1
0 1.5 1.1
0 1.5 1.2
0 1.5 1.3
0 1.5 1.4
0 1.5 1.5
0 1.5 1.6
0 1.5 1.7
0 1.5 1.8
0 1.5 1.9
0 1.5 2
0 1.6 0
0 1.6 0.1
0 1.6 0.2
0 1.6 0.3
0 1.6 0.4
0 1.6 0.5
0 1.6 0.6
0 1.6 0.7
0 1.6 0.8
0 1.6 0.9
0 1.6 1
0 1.6 1.1
0 1.6 1.2
0 1.6 1.3
0 1.6 1.4
0 1.6 1.5
0 1.6 1.6
0 1.6 1.7
0 1.6 1.8
0 1.6 1.9
0 1.6 2
0 1.7 0
0 1.7 0.1
0 1.7 0.2
0 1.7 0.3
0 1.7 0.4
0 1.7 0.5
0 1.7 0.6
0 1.7 0.7
0 1.7 0.8
0 1.7 0.9
0 1.7 1
0 1.7 1.1
0 1.7 1.2
0 1.7 1.3
0 1.7 1.4
0 1.7 1.5
0 1.7 1.6
0 1.7 1.7
0 1.7 1.8
0 1.7 1.9
0 1.7 2
0 1.8 0
0 1.8 0.1
0 1.8 0.2
0 1.8 0.3
0 1.8 0.4
0 1.8 0.5
0 1.8 0.6
0 1.8 0.7
0 1.8 0.8
0 1.8 0.9
0 1.8 1
0 1.8 1.1
0 1.8 1.2
0 1.8 1.3
0 1.8 1.4
0 1.8 1.5
0 1.8 1.6
0 1.8 1.7
0 1.8 1.8
0 1.8 1.9
0 1.8 2
0 1.9 0
0 1.9 0.1
0 1.9 0.2
0 1.9 0.3
0 1.9 0.4
0 1.9 0.5
0 1.9 0.6
0 1.9 0.7
0 1.9 0.8
0 1.9 0.9
0 1.9 1
0 1.9 1.1
0 1.9 1.2
0 1.9 1.3
0 1.9 1.4
0 1.9 1.5
0 1.9 1.6
0 1.9 1.7
0 1.9 1.8
0 1.9 1.9
0 1.9 2
0 2 0
0 2 0.1
0 2 0.2
0 2 0.3
0 2 0.4
0 2 0.5
0 2 0.6
0 2 0.7
0 2 0.8
0 2 0.9
0 2 1
0 2 1.1
0 2 1.2
0 2 1.3
0 2 1.4
0 2 1.5
0 2 1.6
0 2 1.7
0 2 1.8
0 2 1.9
0 2 2
0.1 0 0
0.1 0 0.1
0.1 0 0.2
0.1 0 0.3
0.1 0 0.4
0.1 0 0.5
0.1 0 0.6
0.1 0 0.7
0.1 0 0.8
0.1 0 0.9
0.1 0 1
0.1 0 1.1
0.1 0 1.2
0.1 0 1.3
0.1 0 1.4
0.1 0 1.5
0.1 0 1.6
0.1 0 1.7
0.1 0 1.8
0.1 0 1.9
0.1 0 2
0.1 0.1 0
0.1 0.1 0.1
0.1 0.1 0.2
0.1 0.1 0.3
0.1 0.1 0.4
0.1 0.1 0.5
0.1 0.1 0.6
0.1 0.1 0.7
0.1 0.1 0.8
0.1 0.1 0.9
0.1 0.1 1
0.1 0.1 1.1
0.1 0.1 1.2
0.1 0.1 1.3
0.1 0.1 1.4
0.1 0.1 1.5
0.1 0.1 1.6
0.1 0.1 1.7
0.1 0.1 1.8
0.1 0.1 1.9
0.1 0.1 2
0.1 0.2 0
0.1 0.2 0.1
0.1 0.2 0.2
0.1 0.2 0.3
0.1 0.2 0.4
0.1 0.2 0.5
0.1 0.2 0.6
0.1 0.2 0.7
0.1 0.2 0.8
0.1 0.2 0.9
0.1 0.2 1
0.1 0.2 1.1
0.1 0.2 1.2
0.1 0.2 1.3
0.1 0.2 1.4
0.1 0.2 1.5
0.1 0.2 1.6
0.1 0.2 1.7
0.1 0.2 1.8
0.1 0.2 1.9
0.1 0.2 2
0.1 0.3 0
0.1 0.3 0.1
0.1 0.3 0.2
0.1 0.3 0.3
0.1 0.3 0.4
0.1 0.3 0.5
0.1 0.3 0.6
0.1 0.3 0.7
0.1 0.3 0.8
0.1 0.3 0.9
0.1 0.3 1
0.1 0.3 1.1
0.1 0.3 1.2
0.1 0.3 1.3
0.1 0.3 1.4
0.1 0.3 1.5
0.1 0.3 1.6
0.1 0.3 1.7
0.1 0.3 1.8
0.1 0.3 1.9
0.1 0.3 2
0.1 0.4 0
0.1 0.4 0.1
0.1 0.4 0.2
0.1 0.4 0.3
0.1 0.4 0.4
0.1 0.4 0.5
0.1 0.4 0.6
0.1 0.4 0.7
0.1 0.4 0.8
0.1 0.4 0.9
0.1 0.4 1
0.1 0.4 1.1
0.1 0.4 1.2
0.1 0.4 1.3
0.1 0.4 1.4
0.1 0.4 1.5
0.1 0.4 1.6
0.1 0.4 1.7
0.1 0.4 1.8
0.1 0.4 1.9
0.1 0.4 2
0.1 0.5 0
0.1 0.5 0.1
0.1 0.5 0.2
0.1 0.5 0.3
0.1 0.5 0.4
0.1 0.5 0.5
0.1 0.5 0.6
0.1 0.5 0.7
0.1 0.5 0.8
0.1 0.5 0.9
0.1 0.5 1
0.1 0.5 1.1
0.1 0.5 1.2
0.1 0.5 1.3
0.1 0.5 1.4
0.1 0.5 1.5
0.1 0.5 1.6
0.1 0.5 1.7
0.1 0.5 1.8
0.1 0.5 1.9
0.1 0.5 2
0.1 0.6 0
0.1 0.6 0.1
0.1 0.6 0.2
0.1 0.6 0.3
0.1 0.6 0.4
0.1 0.6 0.5
0.1 0.6 0.6
0.1 0.6 0.7
0.1 0.6 0.8
0.1 0.6 0.9
0.1 0.6 1
0.1 0.6 1.1
0.1 0.6 1.2
0.1 0.6 1.3
0.1 0.6 1.4
0.1 0.6 1.5
0.1 0.6 1.6
0.1 0.6 1.7
0.1 0.6 1.8
0.1 0.6 1.9
0.1 0.6 2
0.1 0.7 0
0.1 0.7 0.1
0.1 0.7 0.2
0.1 0.7 0.3
0.1 0.7 0.4
0.1 0.7 0.5
0.1 0.7 0.6
0.1 0.7 0.7
0.1 0.7 0.8
0.1 0.7 0.9
0.1 0.7 1
0.1 0.7 1.1
0.1 0.7 1.2
0.1 0.7 1.3
0.1 0.7 1.4
0.1 0.7 1.5
0.1 0.7 1.6
0.1 0.7 1.7
0.1 0.7 1.8
0.1 0.7 1.9
0.1 0.7 2
0.1 0.8 0
0.1 0.8 0.1
0.1 0.8 0.2
0.1 0.8 0.3
0.1 0.8 0.4
0.1 0.8 0.5
0.1 0.8 0.6
0.1 0.8 0.7
0.1 0.8 0.8
0.1 0.8 0.9
0.1 0.8 1
0.1 0.8 1.1
0.1 0.8 1.2
0.1 0.8 1.3
0.1 0.8 1.4
0.1 0.8 1.5
0.1 0.8 1.6
0.1 0.8 1.7
0.1 0.8 1.8
0.1 0.8 1.9
0.1 0.8 2
0.1 0.9 0
0.1 0.9 0.1
0.1 0.9 0.2
0.1 0.9 0.3
0.1 0.9 0.4
0.1 0.9 0.5
0.1 0.9 0.6
0.1 0.9 0.7
0.1 0.9 0.8
0.1 0.9 0.9
0.1 0.9 1
0.1 0.9 1.1
0.1 0.9 1.2
0.1 0.9 1.3
0.1 0.9 1.4
0.1 0.9 1.5
0.1 0.9 1.6
0.1 0.9 1.7
0.1 0.9 1.8
0.1 0.9 1.9
0.1 0.9 2
0.1 1 0
0.1 1 0.1
0.1 1 0.2
0.1 1 0.3
0.1 1 0.4
0.1 1 0.5
0.1 1 0.6
0.1 1 0.7
0.1 1 0.8
0.1 1 0.9
0.1 1 1
0.1 1 1.1
0.1 1 1.2
0.1 1 1.3
0.1 1 1.4
0.1 1 1.5
0.1 1 1.6
0.1 1 1.7
0.1 1 1.8
0.1 1 1.9
0.1 1 2
0.1 1.1 0
0.1 1.1 0.1
0.1 1.1 0.2
0.1 1.1 0.3
0.1 1.1 0.4
0.1 1.1 0.5
0.1 1.1 0.6
0.1 1.1 0.7
0.1 1.1 0.8
0.1 1.1 0.9
0.1 1.1 1
0.1 1.1 1.1
0.1 1.1 1.2
0.1 1.1 1.3
0.1 1.1 1.4
0.1 1.1 1.5
0.1 1.1 1.6
0.1 1.1 1.7
0.1 1.1 1.8
0.1 1.1 1.9
0.1 1.1 2
0.1 1.2 0
0.1 1.2 0.1
0.1 1.2 0.2
0.1 1.2 0.3
0.1 1.2 0.4
0.1 1.2 0.5
0.1 1.2 0.6
0.1 1.2 0.7
0.1 1.2 0.8
0.1 1.2 0.9
0.1 1.2 1
0.1 1.2 1.1
0.1 1.2 1.2
0.1 1.2 1.3
0.1 1.2 1.4
0.1 1.2 1.5
0.1 1.2 1.6
0.1 1.2 1.7
0.1 1.2 1.8
0.1 1.2 1.9
0.1 1.2 2
0.1 1.3 0
0.1 1.3 0.1
0.1 1.3 0.2
0.1 1.3 0.3
0.1 1.3 0.4
0.1 1.3 0.5
0.1 1.3 0.6
0.1 1.3 0.7
0.1 1.3 0.8
0.1 1.3 0.9
0.1 1.3 1
0.1 1.3 1.1
0.1 1.3 1.2
0.1 1.3 1.3
0.1 1.3 1.4
0.1 1.3 1.5
0.1 1.3 1.6
0.1 1.3 1.7
0.1 1.3 1.8
0.1 1.3 1.9
0.1 1.3 2
0.1 1.4 0
0.1 1.4 0.1
0.1 1.4 0.2
0.1 1.4 0.3
0.1 1.4 0.4
0.1 1.4 0.5
0.1 1.4 0.6
0.1 1.4 0.7
0.1 1.4 0.8
0.1 1.4 0.9
0.1 1.4 1
0.1 1.4 1.1
0.1 1.4 1.2
0.1 1.4 1.3
0.1 1.4 1.4
0.1 1.4 1.5
0.1 1.4 1.6
0.1 1.4 1.7
0.1 1.4 1.8
0.1 1.4 1.9
0.1 1.4 2
0.1 1.5 0
0.1 1.5 0.1
0.1 1.5 0.2
0.1 1.5 0.3
0.1 1.5 0.4
0.1 1.5 0.5
0.1 1.5 0.6
0.1 1.5 0.7
0.1 1.5 0.8
0.1 1.5 0.9
0.1 1.5 1
0.1 1.5 1.1
0.1 1.5 1.2
0.1 1.5 1.3
0.1 1.5 1.4
0.1 1.5 1.5
0.1 1.5 1.6
0.1 1.5 1.7
0.1 1.5 1.8
0.1 1.5 1.9
0.1 1.5 2
0.1 1.6 0
0.1 1.6 0.1
0.1 1.6 0.2
0.1 1.6 0.3
0.1 1.6 0.4
0.1 1.6 0.5
0.1 1.6 0.6
0.1 1.6 0.7
0.1 1.6 0.8
0.1 1.6 0.9
0.1 1.6 1
0.1 1.6 1.1
0.1 1.6 1.2
0.1 1.6 1.3
0.1 1.6 1.4
0.1 1.6 1.5
0.1 1.6 1.6
0.1 1.6 1.7
0.1 1.6 1.8
0.1 1.6 1.9
0.1 1.6 2
0.1 1.7 0
0.1 1.7 0.1
0.1 1.7 0.2
0.1 1.7 0.3
0.1 1.7 0.4
0.1 1.7 0.5
0.1 1.7 0.6
0.1 1.7 0.7
0.1 1.7 0.8
0.1 1.7 0.9
0.1 1.7 1
0.1 1.7 1.1
0.1 1.7 1.2
0.1 1.7 1.3
0.1 1.7 1.4
0.1 1.7 1.5
0.1 1.7 1.6
0.1 1.7 1.7
0.1 1.7 1.8
0.1 1.7 1.9
0.1 1.7 2
0.1 1.8 0
0.1 1.8 0.1
0.1 1.8 0.2
0.1 1.8 0.3
0.1 1.8 0.4
0.1 1.8 0.5
0.1 1.8 0.6
0.1 1.8 0.7
0.1 1.8 0.8
0.1 1.8 0.9
0.1 1.8 1
0.1 1.8 1.1
0.1 1.8 1.2
0.1 1.8 1.3
0.1 1.8 1.4
0.1 1.8 1.5
0.1 1.8 1.6
0.1 1.8 1.7
0.1 1.8 1.8
0.1 1.8 1.9
0.1 1.8 2
0.1 1.9 0
0.1 1.9 0.1
0.1 1.9 0.2
0.1 1.9 0.3
0.1 1.9 0.4
0.1 1.9 0.5
0.1 1.9 0.6
0.1 1.9 0.7
0.1 1.9 0.8
0.1 1.9 0.9
0.1 1.9 1
0.1 1.9 1.1
0.1 1.9 1.2
0.1 1.9 1.3
0.1 1.9 1.4
0.1 1.9 1.5
0.1 1.9 1.6
0.1 1.9 1.7
0.1 1.9 1.8
0.1 1.9 1.9
0.1 1.9 2
0.1 2 0
0.1 2 0.1
0.1 2 0.2
0.1 2 0.3
0.1 2 0.4
0.1 2 0.5
0.1 2 0.6
0.1 2 0.7
0.1 2 0.8
0.1 2 0.9
0.1 2 1
0.1 2 1.1
0.1 2 1.2
0.1 2 1.3
0.1 2 1.4
0.1 2 1.5
0.1 2 1.6
0.1 2 1.7
0.1 2 1.8
0.1 2 1.9
0.1 2 2
0.2 0 0
0.2 0 0.1
0.2 0 0.2
0.2 0 0.3
0.2 0 0.4
0.2 0 0.5
0.2 0 0.6
0.2 0 0.7
0.2 0 0.8
0.2 0 0.9
0.2 0 1
0.2 0 1.1
0.2 0 1.2
0.2 0 1.3
0.2 0 1.4
0.2 0 1.5
0.2 0 1.6
0.2 0 1.7
0.2 0 1.8
0.2 0 1.9
0.2 0 2
0.2 0.1 0
0.2 0.1 0.1
0.2 0.1 0.2
0.2 0.1 0.3
0.2 0.1 0.4
0.2 0.1 0.5
0.2 0.1 0.6
0.2 0.1 0.7
0.2 0.1 0.8
0.2 0.1 0.9
0.2 0.1 1
0.2 0.1 1.1
0.2 0.1 1.2
0.2 0.1 1.3
0.2 0.1 1.4
0.2 0.1 1.5
0.2 0.1 1.6
0.2 0.1 1.7
0.2 0.1 1.8
0.2 0.1 1.9
0.2 0.1 2
0.2 0.2 0
0.2 0.2 0.1
0.2 0.2 0.2
0.2 0.2 0.3
0.2 0.2 0.4
0.2 0.2 0.5
0.2 0.2 0.6
0.2 0.2 0.7
0.2 0.2 0.8
0.2 0.2 0.9
0.2 0.2 1
0.2 0.2 1.1
0.2 0.2 1.2
0.2 0.2 1.3
0.2 0.2 1.4
0.2 0.2 1.5
0.2 0.2 1.6
0.2 0.2 1.7
0.2 0.2 1.8
0.2 0.2 1.9
[...]
CELL_DATA 8000
SCALARS Phi_sigma_(3D) float 1
LOOKUP_TABLE default
0.0527188
0.0522797
0.0517998
0.051453
0.0511855
0.0509915
0.0508632
0.0507793
0.0507443
0.0507232
0.0507172
0.0507289
0.0507818
0.0508944
0.0510521
0.051244
0.0514961
0.0518433
0.052311
0.0527388
0.0531846
0.0525399
0.0519685
0.0516464
0.0513799
0.0511875
0.0510689
0.0509828
0.0509662
0.0509439
0.0509356
0.0509354
0.0509798
0.0511013
0.0512654
0.0514442
0.0516802
0.0520179
0.0525708
0.053197
0.0550746
0.0544451
0.0538928
0.0535955
0.0533556
0.053194
0.0530908
0.0530029
0.0529841
0.0529677
0.0529755
0.052976
0.0530087
0.0531169
0.0532738
0.0534522
0.0536691
0.0539701
0.054498
0.0551376
0.0585287
0.0581816
0.0578044
0.0575457
0.0573573
0.0572372
0.05715
0.0570749
0.0570419
0.0570351
0.0570579
0.0570742
0.057107
0.0571887
0.0573194
0.0574896
0.0576823
0.057927
0.0582883
0.0586689
0.062563
0.0623896
0.0621699
0.0619877
0.0618484
0.061751
0.0616811
0.0616302
0.0616057
0.0616033
0.0616206
0.0616458
0.0616874
0.0617592
0.0618634
0.0619958
0.0621501
0.0623344
0.0625545
0.0627418
0.0666991
0.0666124
0.0664894
0.0663728
0.0662771
0.0662057
0.0661552
0.0661224
0.0661081
0.0661105
0.0661275
0.066156
0.0661988
0.066261
0.0663437
0.0664445
0.0665601
0.0666883
0.0668191
0.0669132
0.070806
0.0707617
0.0706937
0.0706234
0.0705624
0.0705155
0.0704832
0.0704647
0.0704598
0.0704674
0.0704863
0.0705154
0.0705557
0.0706086
0.0706742
0.0707506
0.0708346
0.0709214
0.0710005
0.0710512
0.0748528
0.0748301
0.0747935
0.0747539
0.0747186
0.0746919
0.0746752
0.0746686
0.0746719
0.0746845
0.0747055
0.0747344
0.0747712
0.074816
0.0748682
0.0749262
0.0749869
0.0750459
0.0750955
0.075125
0.0788282
0.0788172
0.0787992
0.0787797
0.078763
0.078752
0.078748
0.0787513
0.0787617
0.0787787
0.0788017
0.0788301
0.0788637
0.0789019
0.0789439
0.0789883
0.0790327
0.0790735
0.0791059
0.0791243
0.0827162
0.082712
0.0827055
0.0826993
0.0826959
0.0826969
0.082703
0.0827145
0.082731
0.0827519
0.0827766
0.0828047
0.0828356
0.0828686
0.0829031
0.0829377
0.0829707
0.0829997
0.0830218
0.083034
0.0864894
0.0864895
0.0864904
0.0864934
0.0864996
0.0865097
0.0865239
0.0865421
0.0865636
0.0865879
0.0866143
0.0866422
0.0866711
0.0867002
0.0867291
0.0867567
0.0867819
0.0868032
0.0868189
0.0868272
0.0901098
0.0901126
0.0901185
0.090128
0.0901413
0.0901584
0.090179
0.0902026
0.0902284
0.0902556
0.0902835
0.0903115
0.0903389
0.0903653
0.0903901
0.0904127
0.0904326
0.0904487
0.0904602
0.0904662
0.0935299
0.0935346
0.0935442
0.0935584
0.093577
0.0935995
0.0936253
0.0936533
0.0936827
0.0937125
0.0937418
0.0937699
0.0937964
0.0938207
0.0938426
0.0938617
0.0938777
0.0938903
0.0938991
0.0939036
0.0966964
0.0967026
0.0967147
0.0967325
0.0967553
0.0967821
0.096812
0.0968437
0.0968761
0.0969081
0.0969386
0.0969671
0.0969929
0.0970157
0.0970354
0.0970519
0.0970653
0.0970754
0.0970823
0.0970857
0.0995525
0.0995597
0.0995739
0.0995944
0.0996205
0.0996508
0.099684
0.0997188
0.0997536
0.0997874
0.0998191
0.0998478
0.0998732
0.0998949
0.0999131
0.0999277
0.099939
0.0999474
0.0999529
0.0999556
0.102041
0.102049
0.102065
0.102088
0.102116
0.102149
0.102185
0.102222
0.102259
0.102295
0.102327
0.102356
0.102381
0.102402
0.102419
0.102432
0.102442
0.102449
0.102454
0.102456
0.104108
0.104117
0.104134
0.104158
0.104189
0.104224
0.104262
0.104301
0.10434
0.104376
0.10441
0.104439
0.104464
0.104484
0.1045
0.104512
0.104521
0.104527
0.104531
0.104533
0.105706
0.105715
0.105733
0.105759
0.105791
0.105828
0.105867
0.105908
0.105947
0.105985
0.106019
0.106048
0.106073
0.106093
0.106108
0.106119
0.106127
0.106133
0.106136
0.106138
0.106796
0.106805
0.106823
0.10685
0.106883
0.10692
0.106961
0.107002
0.107043
0.107081
0.107115
0.107145
0.107169
0.107189
0.107204
0.107215
0.107222
0.107227
0.10723
0.107231
0.107348
0.107357
0.107376
0.107403
0.107436
0.107475
0.107516
0.107558
0.107599
0.107637
0.107671
0.107701
0.107725
0.107745
0.107759
0.10777
0.107777
0.107782
0.107785
0.107786
0.0532316
0.0525965
0.0520305
0.0517093
0.0514446
0.051255
0.0511371
0.0510498
0.0510315
0.0510098
0.0510038
0.0510043
0.0510475
0.0511673
0.0513312
0.0515118
0.0517476
0.0520822
0.0526294
0.0532499
0.0529512
0.0513631
0.0504997
0.0503682
0.0500546
0.0498316
0.0497473
0.0496232
0.0497017
0.0496526
0.0496319
0.0495827
0.0495979
0.0497772
0.0499844
0.0501102
0.0503067
0.050561
0.0513709
0.0528862
0.0547076
0.0530995
0.0522077
0.0520907
0.0518029
0.0516489
0.051587
0.051429
0.0514884
0.0514464
0.0514866
0.0514327
0.0514103
0.0515593
0.0517638
0.051935
0.0521134
0.0522933
0.0530822
0.0547508
0.058895
0.0583375
0.0578261
0.0575753
0.0573893
0.0573211
0.0572516
0.0571346
0.057094
0.0570889
0.0571676
0.0571678
0.0571597
0.0572256
0.057367
0.0575844
0.0577634
0.0579501
0.058386
0.059102
0.0632634
0.0630484
0.0628041
0.0626256
0.0624911
0.0624031
0.0623386
0.0622856
0.0622632
0.0622625
0.0622858
0.062308
0.0623437
0.0624133
0.0625174
0.0626509
0.0627983
0.0629738
0.0632124
0.0634544
0.0674708
0.0673775
0.0672523
0.0671395
0.067048
0.0669807
0.0669335
0.0669029
0.0668909
0.0668946
0.0669124
0.0669403
0.0669821
0.0670433
0.0671241
0.0672219
0.0673331
0.0674577
0.0675902
0.0676921
0.0715888
0.0715445
0.0714782
0.0714111
0.0713535
0.0713096
0.0712799
0.0712636
0.0712606
0.0712693
0.0712886
0.0713177
0.0713577
0.0714098
0.0714737
0.0715476
0.0716287
0.0717127
0.0717904
0.0718414
0.0756446
0.0756227
0.075588
0.0755509
0.0755183
0.075494
0.0754795
0.0754748
0.0754797
0.0754933
0.0755148
0.0755439
0.0755805
0.0756247
0.0756757
0.0757319
0.0757907
0.0758477
0.0758958
0.0759246
0.0796413
0.0796311
0.0796146
0.079597
0.0795824
0.0795735
0.0795714
0.0795764
0.0795882
0.0796063
0.0796299
0.0796586
0.0796921
0.0797298
0.079771
0.0798142
0.0798572
0.0798967
0.0799281
0.0799459
0.0835645
0.0835609
0.0835556
0.083551
0.0835494
0.0835522
0.0835602
0.0835732
0.0835911
0.083613
0.0836385
0.083667
0.0836979
0.0837306
0.0837645
0.0837982
0.0838303
0.0838584
0.0838797
0.0838914
0.0873846
0.0873852
0.0873872
0.0873916
0.0873995
0.0874113
0.0874273
0.087447
0.0874699
0.0874954
0.0875226
0.087551
0.0875799
0.0876089
0.0876373
0.0876643
0.0876888
0.0877094
0.0877244
0.0877325
0.0910605
0.0910638
0.0910708
0.0910816
0.0910966
0.0911155
0.0911379
0.0911631
0.0911904
0.0912188
0.0912476
0.0912761
0.0913037
0.09133
0.0913544
0.0913765
0.0913957
0.0914113
0.0914223
0.091428
0.0945417
0.094547
0.0945575
0.0945732
0.0945935
0.094618
0.0946456
0.0946755
0.0947064
0.0947375
0.0947678
0.0947965
0.0948232
0.0948474
0.0948689
0.0948875
0.094903
0.094915
0.0949233
0.0949276
0.0977715
0.0977782
0.0977915
0.0978108
0.0978355
0.0978644
0.0978963
0.09793
0.0979641
0.0979974
0.098029
0.0980581
0.0980842
0.0981069
0.0981262
0.0981422
0.0981549
0.0981645
0.0981709
0.0981741
0.10069
0.100698
0.100713
0.100735
0.100763
0.100796
0.100831
0.100868
0.100905
0.10094
0.100973
0.101002
0.101028
0.10105
0.101067
0.101081
0.101092
0.1011
0.101105
0.101107
0.103237
0.103245
0.103262
0.103287
0.103318
0.103353
0.103391
0.103431
0.10347
0.103507
0.103541
0.10357
0.103596
0.103616
0.103633
0.103645
0.103655
0.103661
0.103665
0.103667
0.105355
0.105364
0.105382
0.105409
0.105442
0.105479
0.10552
0.105562
0.105602
0.105641
0.105675
0.105705
0.10573
0.10575
0.105766
0.105777
0.105785
0.10579
0.105794
0.105795
0.106993
0.107003
0.107023
0.10705
0.107085
0.107124
0.107166
0.10721
0.107252
0.107291
0.107326
0.107356
0.107381
0.107401
0.107416
0.107426
0.107433
0.107438
0.10744
0.107442
0.108111
0.108122
0.108141
0.10817
0.108205
0.108246
0.108289
0.108334
0.108376
0.108416
0.108452
0.108482
0.108507
0.108526
0.108541
0.108551
0.108557
0.108561
0.108563
0.108564
0.108678
0.108689
0.108709
0.108738
0.108774
0.108815
0.108859
0.108904
0.108947
0.108987
0.109023
0.109053
0.109078
0.109097
0.109111
0.109121
0.109127
0.109131
0.109133
0.109134
0.0552072
0.0546203
0.0540846
0.0537843
0.0535503
0.0534
0.0532985
0.0532057
0.0531791
0.053165
0.0531826
0.0531856
0.0532138
0.0533146
0.0534703
0.0536582
0.0538756
0.054167
0.0546745
0.055292
0.0548397
0.053395
0.0525151
0.0523494
0.0520786
0.0519783
0.05192
0.0517366
0.0517562
0.0517239
0.0518163
0.0517679
0.0517211
0.0518361
0.052036
0.0522657
0.0524498
0.0526032
0.0533447
0.0549731
0.0567058
0.0552076
0.0543727
0.0542662
0.0540049
0.0538628
0.0538069
0.0536652
0.0537241
0.053688
0.053724
0.0536749
0.0536574
0.0537996
0.0539912
0.0541467
0.0543084
0.0544778
0.0552219
0.0567729
0.0608087
0.0601337
0.0597102
0.0595637
0.0593725
0.0591924
0.0591151
0.0590825
0.0591238
0.0591057
0.059056
0.0590553
0.0591165
0.0592487
0.0593804
0.0594475
0.0596008
0.0598496
0.0603021
0.060849
0.06498
0.0647566
0.0645388
0.064391
0.0642654
0.0641664
0.0641058
0.0640728
0.0640686
0.0640668
0.06407
0.0640909
0.0641385
0.0642177
0.0643136
0.0644149
0.0645468
0.0647203
0.0649472
0.0651547
0.0690887
0.0689996
0.068887
0.0687882
0.0687056
0.0686426
0.0686009
0.0685779
0.0685723
0.0685775
0.0685928
0.0686204
0.0686637
0.0687247
0.0688001
0.0688871
0.0689886
0.0691049
0.0692276
0.0693188
0.0731624
0.0731219
0.0730629
0.073004
0.0729534
0.072915
0.0728903
0.0728787
0.0728794
0.07289
0.0729099
0.0729392
0.0729789
0.0730294
0.0730898
0.0731581
0.0732329
0.0733107
0.0733821
0.0734284
0.0772197
0.0772004
0.0771703
0.0771386
0.0771112
0.0770917
0.0770814
0.0770805
0.0770883
0.0771039
0.0771266
0.0771561
0.0771923
0.0772351
0.0772837
0.0773364
0.0773911
0.0774439
0.0774883
0.0775147
0.0812569
0.0812485
0.0812351
0.0812214
0.081211
0.0812061
0.0812078
0.0812161
0.0812306
0.0812507
0.0812756
0.0813049
0.0813381
0.0813749
0.0814144
0.0814553
0.0814955
0.0815323
0.0815613
0.0815777
0.0852521
0.0852498
0.0852469
0.0852455
0.0852475
0.085254
0.0852654
0.0852816
0.0853021
0.0853261
0.085353
0.0853822
0.0854131
0.0854453
0.0854779
0.08551
0.0855401
0.0855663
0.0855861
0.0855969
0.0891686
0.0891704
0.0891744
0.0891817
0.0891929
0.0892083
0.0892277
0.0892506
0.0892763
0.0893039
0.0893327
0.0893619
0.0893911
0.0894197
0.0894472
0.0894728
0.0894958
0.089515
0.0895289
0.0895363
0.0929586
0.092963
0.092972
0.0929857
0.0930039
0.0930264
0.0930524
0.093081
0.0931112
0.0931421
0.0931726
0.0932021
0.09323
0.093256
0.0932796
0.0933006
0.0933185
0.0933327
0.0933428
0.093348
0.0965649
0.0965713
0.096584
0.0966026
0.0966265
0.0966547
0.0966862
0.0967197
0.0967539
0.0967875
0.0968197
0.0968495
0.0968766
0.0969006
0.0969213
0.0969387
0.0969529
0.0969637
0.0969711
0.0969749
0.0999244
0.0999323
0.0999478
0.0999703
0.0999988
0.100032
0.100068
0.100106
0.100143
0.100179
0.100213
0.100243
0.10027
0.100292
0.100311
0.100326
0.100337
0.100345
0.100351
0.100353
0.10297
0.102979
0.102997
0.103023
0.103055
0.103092
0.103132
0.103174
0.103214
0.103252
0.103287
0.103318
0.103344
0.103366
0.103382
0.103395
0.103404
0.10341
0.103414
0.103416
0.105636
0.105646
0.105666
0.105694
0.10573
0.10577
0.105813
0.105857
0.105901
0.105941
0.105977
0.106008
0.106034
0.106054
0.106069
0.10608
0.106088
0.106093
0.106095
0.106097
0.107859
0.107869
0.107891
0.107921
0.107959
0.108002
0.108048
0.108094
0.108139
0.108181
0.108218
0.10825
0.108275
0.108295
0.108309
0.108319
0.108325
0.108328
0.10833
0.108331
0.109581
0.109593
0.109615
0.109647
0.109687
0.109732
0.10978
0.109828
0.109875
0.109917
0.109955
0.109987
0.110012
0.110031
0.110044
0.110053
0.110058
0.110061
0.110062
0.110062
0.110758
0.11077
0.110793
0.110826
0.110867
0.110913
0.110962
0.111012
0.11106
0.111103
0.111141
0.111173
0.111198
0.111217
0.11123
0.111238
0.111242
0.111244
0.111245
0.111245
0.111355
0.111367
0.111391
0.111424
0.111466
0.111513
0.111563
0.111613
0.111661
0.111705
0.111743
0.111775
0.1118
0.111819
0.111831
0.111839
0.111843
0.111844
0.111845
0.111845
0.0587077
0.058385
0.0580339
0.0577859
0.0575995
0.0574711
0.0573823
0.0573155
0.0572877
0.0572796
0.0572922
0.0573097
0.0573501
0.0574363
0.0575635
0.0577214
0.057911
0.0581576
0.0585014
0.0588368
0.0591364
0.0586211
0.0581754
0.057945
0.0577583
0.0576409
0.0575622
0.0574841
0.057467
0.0574589
0.0574816
0.0574876
0.057513
0.0576023
0.0577378
0.0578976
0.0580744
0.0583028
0.0587251
0.059274
0.0607316
0.0600548
0.0595804
0.059411
0.0592268
0.0591099
0.0590445
0.0589667
0.0589757
0.0589627
0.0589815
0.0589775
0.0589992
0.0590993
0.0592355
0.0593719
0.0595275
0.0597223
0.0601671
0.0608647
0.0639632
0.0636432
0.0633607
0.0631972
0.0630562
0.0629473
0.0628831
0.0628452
0.0628451
0.0628413
0.0628422
0.0628575
0.0629033
0.0629897
0.0630944
0.0632004
0.0633397
0.0635317
0.0638192
0.0641212
0.0676377
0.067497
0.0673389
0.0672161
0.0671153
0.0670383
0.0669891
0.0669628
0.0669578
0.0669607
0.066972
0.066997
0.0670423
0.0671105
0.067194
0.0672881
0.067403
0.067545
0.0677121
0.0678499
0.0715052
0.0714404
0.0713539
0.0712743
0.0712076
0.071157
0.0711244
0.0711084
0.0711069
0.0711155
0.0711333
0.0711621
0.0712041
0.0712603
0.0713282
0.0714057
0.0714943
0.0715924
0.0716905
0.0717591
0.0754855
0.0754543
0.075408
0.0753613
0.0753214
0.0752921
0.0752747
0.0752691
0.075274
0.0752878
0.0753095
0.0753393
0.075378
0.0754255
0.0754807
0.0755421
0.0756082
0.0756754
0.0757353
0.0757729
0.0795432
0.0795285
0.0795055
0.0794817
0.0794622
0.0794497
0.0794456
0.0794498
0.0794617
0.0794802
0.0795047
0.0795347
0.0795703
0.079611
0.0796561
0.079704
0.079753
0.0797994
0.0798378
0.0798602
0.083647
0.0836412
0.0836326
0.0836246
0.0836203
0.0836213
0.0836284
0.0836415
0.0836599
0.0836829
0.0837097
0.0837398
0.0837728
0.0838081
0.0838451
0.0838826
0.083919
0.0839517
0.0839772
0.0839915
0.0877578
0.0877575
0.0877582
0.0877614
0.0877686
0.0877805
0.0877971
0.0878179
0.0878424
0.0878694
0.0878984
0.0879286
0.0879596
0.0879907
0.0880215
0.0880511
0.0880784
0.0881018
0.0881193
0.0881288
0.0918267
0.0918301
0.0918373
0.0918489
0.091865
0.0918857
0.0919103
0.091938
0.0919678
0.0919987
0.0920298
0.0920603
0.0920897
0.0921176
0.0921436
0.0921672
0.0921879
0.0922049
0.0922171
0.0922235
0.0957954
0.0958014
0.0958135
0.0958315
0.0958549
0.0958828
0.0959143
0.095948
0.0959827
0.0960171
0.0960501
0.0960811
0.0961094
0.0961348
0.096157
0.0961761
0.096192
0.0962043
0.0962129
0.0962173
0.099597
0.0996051
0.099621
0.0996442
0.0996735
0.0997077
0.0997452
0.0997843
0.0998233
0.0998609
0.0998958
0.0999273
0.0999548
0.0999782
0.0999976
0.100013
0.100025
0.100034
0.10004
0.100043
0.103158
0.103168
0.103187
0.103215
0.103249
0.103289
0.103332
0.103375
0.103418
0.103459
0.103496
0.103528
0.103555
0.103576
0.103593
0.103606
0.103615
0.103621
0.103625
0.103627
0.106403
0.106415
0.106436
0.106468
0.106506
0.106551
0.106598
0.106646
0.106692
0.106735
0.106774
0.106806
0.106833
0.106853
0.106868
0.106878
0.106885
0.106889
0.106891
0.106892
0.109255
0.109267
0.109292
0.109326
0.109368
0.109417
0.109468
0.109519
0.109569
0.109614
0.109654
0.109687
0.109713
0.109732
0.109746
0.109754
0.109758
0.10976
0.109761
0.109761
0.111641
0.111654
0.11168
0.111717
0.111762
0.111814
0.111868
0.111923
0.111975
0.112022
0.112063
0.112096
0.112122
0.11214
0.112152
0.112159
0.112161
0.112162
0.112162
0.112161
0.113495
0.113509
0.113536
0.113575
0.113623
0.113677
0.113734
0.113791
0.113844
0.113893
0.113934
0.113968
0.113994
0.114011
0.114022
0.114027
0.114029
0.114028
0.114027
0.114026
0.114763
0.114778
0.114806
0.114847
0.114896
0.114952
0.11501
0.115069
0.115124
0.115173
0.115215
0.115249
0.115275
0.115292
0.115302
0.115306
0.115306
0.115305
0.115303
0.115302
0.115408
0.115423
0.115452
0.115493
0.115543
0.1156
0.115659
0.115718
0.115774
0.115824
0.115866
0.1159
0.115925
0.115942
0.115952
0.115956
0.115956
0.115954
0.115952
0.11595
0.0627027
0.0625402
0.062334
0.0621594
0.062022
0.0619218
0.0618516
0.0618045
0.0617828
0.0617796
0.0617926
0.061818
0.0618629
0.0619366
0.0620385
0.0621646
0.0623155
0.0624973
0.0627066
0.0628752
0.0633909
0.0631884
0.0629606
0.0627898
0.0626563
0.0625612
0.0624955
0.0624493
0.0624314
0.0624296
0.0624442
0.062467
0.0625086
0.062582
0.0626837
0.0628068
0.0629516
0.0631299
0.0633588
0.0635702
0.0650071
0.0647848
0.0645608
0.0644099
0.0642873
0.0641996
0.0641418
0.0641013
0.0640911
0.064091
0.0641052
0.0641263
0.0641668
0.0642398
0.0643367
0.0644487
0.0645806
0.0647445
0.0649701
0.0651985
0.0676504
0.0675098
0.0673506
0.0672273
0.0671275
0.0670528
0.0670043
0.0669766
0.0669703
0.0669738
0.0669871
0.0670122
0.067056
0.0671228
0.0672066
0.0673026
0.0674175
0.0675577
0.0677249
0.0678663
0.0709141
0.0708369
0.0707371
0.0706485
0.0705753
0.0705203
0.0704849
0.070467
0.0704647
0.0704726
0.0704899
0.0705182
0.0705609
0.0706191
0.07069
0.0707714
0.0708654
0.0709722
0.0710831
0.0711637
0.0745603
0.0745195
0.0744611
0.074404
0.074356
0.0743205
0.0742989
0.0742907
0.0742942
0.0743068
0.0743279
0.0743578
0.0743979
0.0744482
0.0745076
0.0745743
0.0746477
0.0747249
0.0747966
0.0748433
0.0784645
0.0784437
0.0784119
0.0783796
0.0783526
0.0783343
0.078326
0.0783273
0.0783374
0.078355
0.078379
0.0784096
0.0784469
0.0784906
0.0785398
0.0785932
0.0786491
0.0787039
0.0787508
0.0787791
0.0825526
0.0825431
0.0825286
0.0825144
0.0825044
0.0825007
0.0825042
0.0825147
0.0825316
0.0825538
0.0825806
0.0826115
0.0826462
0.0826843
0.0827251
0.0827674
0.0828094
0.0828484
0.0828796
0.0828976
0.0867663
0.0867639
0.0867609
0.0867601
0.0867634
0.0867719
0.0867859
0.0868051
0.0868285
0.0868552
0.0868845
0.0869156
0.0869482
0.0869817
0.0870156
0.087049
0.0870806
0.0871084
0.0871297
0.0871414
0.0910483
0.0910505
0.0910558
0.091065
0.091079
0.0910979
0.0911212
0.0911482
0.0911777
0.0912088
0.0912405
0.091272
0.0913029
0.0913328
0.0913611
0.0913875
0.0914112
0.0914311
0.0914457
0.0914535
0.0953354
0.095341
0.0953524
0.0953697
0.0953925
0.0954202
0.0954518
0.0954859
0.0955212
0.0955564
0.0955905
0.0956226
0.0956522
0.0956791
0.095703
0.0957239
0.0957415
0.0957555
0.0957654
0.0957706
0.0995565
0.0995648
0.0995812
0.0996051
0.0996355
0.099671
0.09971
0.0997507
0.0997914
0.0998305
0.099867
0.0998997
0.0999284
0.0999528
0.099973
0.0999894
0.100002
0.100012
0.100018
0.100021
0.103633
0.103643
0.103664
0.103693
0.10373
0.103773
0.103819
0.103865
0.103911
0.103954
0.103993
0.104026
0.104054
0.104077
0.104094
0.104106
0.104115
0.104121
0.104125
0.104126
0.107478
0.10749
0.107515
0.107549
0.107592
0.107641
0.107693
0.107746
0.107796
0.107842
0.107883
0.107918
0.107945
0.107965
0.10798
0.107989
0.107994
0.107997
0.107998
0.107999
0.111003
0.111017
0.111044
0.111084
0.111132
0.111187
0.111244
0.111302
0.111356
0.111406
0.111449
0.111484
0.11151
0.111529
0.111541
0.111548
0.11155
0.11155
0.111549
0.111549
0.114116
0.114132
0.114163
0.114206
0.114259
0.114318
0.114381
0.114443
0.114501
0.114554
0.114598
0.114634
0.11466
0.114677
0.114687
0.114691
0.11469
0.114688
0.114686
0.114684
0.116732
0.116749
0.116782
0.116829
0.116886
0.11695
0.117016
0.117082
0.117144
0.117198
0.117244
0.11728
0.117306
0.117322
0.11733
0.117331
0.117329
0.117324
0.11732
0.117318
0.118772
0.11879
0.118825
0.118874
0.118934
0.119002
0.119071
0.11914
0.119204
0.119261
0.119307
0.119344
0.119369
0.119384
0.11939
0.11939
0.119386
0.11938
0.119374
0.119371
0.120172
0.12019
0.120227
0.120278
0.12034
0.120409
0.120481
0.120552
0.120618
0.120675
0.120723
0.120759
0.120784
0.120799
0.120804
0.120802
0.120797
0.120789
0.120783
0.12078
0.120884
0.120903
0.12094
0.120992
0.121055
0.121126
0.121199
0.121271
0.121337
0.121396
0.121443
0.12148
0.121505
0.121518
0.121523
0.121521
0.121515
0.121507
0.1215
0.121496
0.066801
0.066719
0.0666021
0.0664898
0.0663958
0.0663243
0.0662741
0.0662428
0.0662297
0.0662318
0.0662475
0.0662758
0.0663196
0.0663821
0.0664633
0.0665612
0.0666742
0.0667995
0.0669246
0.0670119
0.067557
0.0674679
0.0673483
0.0672391
0.067149
0.0670812
0.0670342
0.0670052
0.0669943
0.0669977
0.067014
0.0670419
0.0670846
0.0671462
0.0672258
0.0673208
0.06743
0.0675527
0.0676806
0.0677754
0.0691344
0.0690465
0.0689342
0.068836
0.068755
0.0686945
0.0686537
0.0686297
0.068623
0.0686287
0.0686458
0.0686735
0.0687154
0.0687749
0.0688502
0.0689383
0.0690391
0.0691527
0.0692742
0.0693676
0.0715293
0.0714649
0.0713784
0.071299
0.0712331
0.0711838
0.0711517
0.0711352
0.0711332
0.071142
0.0711606
0.0711894
0.0712308
0.0712863
0.0713541
0.0714321
0.0715203
0.0716175
0.0717152
0.0717848
0.0745702
0.0745296
0.0744712