# vtk DataFile Version 2.0
Pressure 3D1D coupled problem
ASCII
DATASET UNSTRUCTURED_GRID
POINTS 9261 float
0 0 0
0 0 0.1
0 0 0.2
0 0 0.3
0 0 0.4
0 0 0.5
0 0 0.6
0 0 0.7
0 0 0.8
0 0 0.9
0 0 1
0 0 1.1
0 0 1.2
0 0 1.3
0 0 1.4
0 0 1.5
0 0 1.6
0 0 1.7
0 0 1.8
0 0 1.9
0 0 2
0 0.1 0
0 0.1 0.1
0 0.1 0.2
0 0.1 0.3
0 0.1 0.4
0 0.1 0.5
0 0.1 0.6
0 0.1 0.7
0 0.1 0.8
0 0.1 0.9
0 0.1 1
0 0.1 1.1
0 0.1 1.2
0 0.1 1.3
0 0.1 1.4
0 0.1 1.5
0 0.1 1.6
0 0.1 1.7
0 0.1 1.8
0 0.1 1.9
0 0.1 2
0 0.2 0
0 0.2 0.1
0 0.2 0.2
0 0.2 0.3
0 0.2 0.4
0 0.2 0.5
0 0.2 0.6
0 0.2 0.7
0 0.2 0.8
0 0.2 0.9
0 0.2 1
0 0.2 1.1
0 0.2 1.2
0 0.2 1.3
0 0.2 1.4
0 0.2 1.5
0 0.2 1.6
0 0.2 1.7
0 0.2 1.8
0 0.2 1.9
0 0.2 2
0 0.3 0
0 0.3 0.1
0 0.3 0.2
0 0.3 0.3
0 0.3 0.4
0 0.3 0.5
0 0.3 0.6
0 0.3 0.7
0 0.3 0.8
0 0.3 0.9
0 0.3 1
0 0.3 1.1
0 0.3 1.2
0 0.3 1.3
0 0.3 1.4
0 0.3 1.5
0 0.3 1.6
0 0.3 1.7
0 0.3 1.8
0 0.3 1.9
0 0.3 2
0 0.4 0
0 0.4 0.1
0 0.4 0.2
0 0.4 0.3
0 0.4 0.4
0 0.4 0.5
0 0.4 0.6
0 0.4 0.7
0 0.4 0.8
0 0.4 0.9
0 0.4 1
0 0.4 1.1
0 0.4 1.2
0 0.4 1.3
0 0.4 1.4
0 0.4 1.5
0 0.4 1.6
0 0.4 1.7
0 0.4 1.8
0 0.4 1.9
0 0.4 2
0 0.5 0
0 0.5 0.1
0 0.5 0.2
0 0.5 0.3
0 0.5 0.4
0 0.5 0.5
0 0.5 0.6
0 0.5 0.7
0 0.5 0.8
0 0.5 0.9
0 0.5 1
0 0.5 1.1
0 0.5 1.2
0 0.5 1.3
0 0.5 1.4
0 0.5 1.5
0 0.5 1.6
0 0.5 1.7
0 0.5 1.8
0 0.5 1.9
0 0.5 2
0 0.6 0
0 0.6 0.1
0 0.6 0.2
0 0.6 0.3
0 0.6 0.4
0 0.6 0.5
0 0.6 0.6
0 0.6 0.7
0 0.6 0.8
0 0.6 0.9
0 0.6 1
0 0.6 1.1
0 0.6 1.2
0 0.6 1.3
0 0.6 1.4
0 0.6 1.5
0 0.6 1.6
0 0.6 1.7
0 0.6 1.8
0 0.6 1.9
0 0.6 2
0 0.7 0
0 0.7 0.1
0 0.7 0.2
0 0.7 0.3
0 0.7 0.4
0 0.7 0.5
0 0.7 0.6
0 0.7 0.7
0 0.7 0.8
0 0.7 0.9
0 0.7 1
0 0.7 1.1
0 0.7 1.2
0 0.7 1.3
0 0.7 1.4
0 0.7 1.5
0 0.7 1.6
0 0.7 1.7
0 0.7 1.8
0 0.7 1.9
0 0.7 2
0 0.8 0
0 0.8 0.1
0 0.8 0.2
0 0.8 0.3
0 0.8 0.4
0 0.8 0.5
0 0.8 0.6
0 0.8 0.7
0 0.8 0.8
0 0.8 0.9
0 0.8 1
0 0.8 1.1
0 0.8 1.2
0 0.8 1.3
0 0.8 1.4
0 0.8 1.5
0 0.8 1.6
0 0.8 1.7
0 0.8 1.8
0 0.8 1.9
0 0.8 2
0 0.9 0
0 0.9 0.1
0 0.9 0.2
0 0.9 0.3
0 0.9 0.4
0 0.9 0.5
0 0.9 0.6
0 0.9 0.7
0 0.9 0.8
0 0.9 0.9
0 0.9 1
0 0.9 1.1
0 0.9 1.2
0 0.9 1.3
0 0.9 1.4
0 0.9 1.5
0 0.9 1.6
0 0.9 1.7
0 0.9 1.8
0 0.9 1.9
0 0.9 2
0 1 0
0 1 0.1
0 1 0.2
0 1 0.3
0 1 0.4
0 1 0.5
0 1 0.6
0 1 0.7
0 1 0.8
0 1 0.9
0 1 1
0 1 1.1
0 1 1.2
0 1 1.3
0 1 1.4
0 1 1.5
0 1 1.6
0 1 1.7
0 1 1.8
0 1 1.9
0 1 2
0 1.1 0
0 1.1 0.1
0 1.1 0.2
0 1.1 0.3
0 1.1 0.4
0 1.1 0.5
0 1.1 0.6
0 1.1 0.7
0 1.1 0.8
0 1.1 0.9
0 1.1 1
0 1.1 1.1
0 1.1 1.2
0 1.1 1.3
0 1.1 1.4
0 1.1 1.5
0 1.1 1.6
0 1.1 1.7
0 1.1 1.8
0 1.1 1.9
0 1.1 2
0 1.2 0
0 1.2 0.1
0 1.2 0.2
0 1.2 0.3
0 1.2 0.4
0 1.2 0.5
0 1.2 0.6
0 1.2 0.7
0 1.2 0.8
0 1.2 0.9
0 1.2 1
0 1.2 1.1
0 1.2 1.2
0 1.2 1.3
0 1.2 1.4
0 1.2 1.5
0 1.2 1.6
0 1.2 1.7
0 1.2 1.8
0 1.2 1.9
0 1.2 2
0 1.3 0
0 1.3 0.1
0 1.3 0.2
0 1.3 0.3
0 1.3 0.4
0 1.3 0.5
0 1.3 0.6
0 1.3 0.7
0 1.3 0.8
0 1.3 0.9
0 1.3 1
0 1.3 1.1
0 1.3 1.2
0 1.3 1.3
0 1.3 1.4
0 1.3 1.5
0 1.3 1.6
0 1.3 1.7
0 1.3 1.8
0 1.3 1.9
0 1.3 2
0 1.4 0
0 1.4 0.1
0 1.4 0.2
0 1.4 0.3
0 1.4 0.4
0 1.4 0.5
0 1.4 0.6
0 1.4 0.7
0 1.4 0.8
0 1.4 0.9
0 1.4 1
0 1.4 1.1
0 1.4 1.2
0 1.4 1.3
0 1.4 1.4
0 1.4 1.5
0 1.4 1.6
0 1.4 1.7
0 1.4 1.8
0 1.4 1.9
0 1.4 2
0 1.5 0
0 1.5 0.1
0 1.5 0.2
0 1.5 0.3
0 1.5 0.4
0 1.5 0.5
0 1.5 0.6
0 1.5 0.7
0 1.5 0.8
0 1.5 0.9
0 1.5 1
0 1.5 1.1
0 1.5 1.2
0 1.5 1.3
0 1.5 1.4
0 1.5 1.5
0 1.5 1.6
0 1.5 1.7
0 1.5 1.8
0 1.5 1.9
0 1.5 2
0 1.6 0
0 1.6 0.1
0 1.6 0.2
0 1.6 0.3
0 1.6 0.4
0 1.6 0.5
0 1.6 0.6
0 1.6 0.7
0 1.6 0.8
0 1.6 0.9
0 1.6 1
0 1.6 1.1
0 1.6 1.2
0 1.6 1.3
0 1.6 1.4
0 1.6 1.5
0 1.6 1.6
0 1.6 1.7
0 1.6 1.8
0 1.6 1.9
0 1.6 2
0 1.7 0
0 1.7 0.1
0 1.7 0.2
0 1.7 0.3
0 1.7 0.4
0 1.7 0.5
0 1.7 0.6
0 1.7 0.7
0 1.7 0.8
0 1.7 0.9
0 1.7 1
0 1.7 1.1
0 1.7 1.2
0 1.7 1.3
0 1.7 1.4
0 1.7 1.5
0 1.7 1.6
0 1.7 1.7
0 1.7 1.8
0 1.7 1.9
0 1.7 2
0 1.8 0
0 1.8 0.1
0 1.8 0.2
0 1.8 0.3
0 1.8 0.4
0 1.8 0.5
0 1.8 0.6
0 1.8 0.7
0 1.8 0.8
0 1.8 0.9
0 1.8 1
0 1.8 1.1
0 1.8 1.2
0 1.8 1.3
0 1.8 1.4
0 1.8 1.5
0 1.8 1.6
0 1.8 1.7
0 1.8 1.8
0 1.8 1.9
0 1.8 2
0 1.9 0
0 1.9 0.1
0 1.9 0.2
0 1.9 0.3
0 1.9 0.4
0 1.9 0.5
0 1.9 0.6
0 1.9 0.7
0 1.9 0.8
0 1.9 0.9
0 1.9 1
0 1.9 1.1
0 1.9 1.2
0 1.9 1.3
0 1.9 1.4
0 1.9 1.5
0 1.9 1.6
0 1.9 1.7
0 1.9 1.8
0 1.9 1.9
0 1.9 2
0 2 0
0 2 0.1
0 2 0.2
0 2 0.3
0 2 0.4
0 2 0.5
0 2 0.6
0 2 0.7
0 2 0.8
0 2 0.9
0 2 1
0 2 1.1
0 2 1.2
0 2 1.3
0 2 1.4
0 2 1.5
0 2 1.6
0 2 1.7
0 2 1.8
0 2 1.9
0 2 2
0.1 0 0
0.1 0 0.1
0.1 0 0.2
0.1 0 0.3
0.1 0 0.4
0.1 0 0.5
0.1 0 0.6
0.1 0 0.7
0.1 0 0.8
0.1 0 0.9
0.1 0 1
0.1 0 1.1
0.1 0 1.2
0.1 0 1.3
0.1 0 1.4
0.1 0 1.5
0.1 0 1.6
0.1 0 1.7
0.1 0 1.8
0.1 0 1.9
0.1 0 2
0.1 0.1 0
0.1 0.1 0.1
0.1 0.1 0.2
0.1 0.1 0.3
0.1 0.1 0.4
0.1 0.1 0.5
0.1 0.1 0.6
0.1 0.1 0.7
0.1 0.1 0.8
0.1 0.1 0.9
0.1 0.1 1
0.1 0.1 1.1
0.1 0.1 1.2
0.1 0.1 1.3
0.1 0.1 1.4
0.1 0.1 1.5
0.1 0.1 1.6
0.1 0.1 1.7
0.1 0.1 1.8
0.1 0.1 1.9
0.1 0.1 2
0.1 0.2 0
0.1 0.2 0.1
0.1 0.2 0.2
0.1 0.2 0.3
0.1 0.2 0.4
0.1 0.2 0.5
0.1 0.2 0.6
0.1 0.2 0.7
0.1 0.2 0.8
0.1 0.2 0.9
0.1 0.2 1
0.1 0.2 1.1
0.1 0.2 1.2
0.1 0.2 1.3
0.1 0.2 1.4
0.1 0.2 1.5
0.1 0.2 1.6
0.1 0.2 1.7
0.1 0.2 1.8
0.1 0.2 1.9
0.1 0.2 2
0.1 0.3 0
0.1 0.3 0.1
0.1 0.3 0.2
0.1 0.3 0.3
0.1 0.3 0.4
0.1 0.3 0.5
0.1 0.3 0.6
0.1 0.3 0.7
0.1 0.3 0.8
0.1 0.3 0.9
0.1 0.3 1
0.1 0.3 1.1
0.1 0.3 1.2
0.1 0.3 1.3
0.1 0.3 1.4
0.1 0.3 1.5
0.1 0.3 1.6
0.1 0.3 1.7
0.1 0.3 1.8
0.1 0.3 1.9
0.1 0.3 2
0.1 0.4 0
0.1 0.4 0.1
0.1 0.4 0.2
0.1 0.4 0.3
0.1 0.4 0.4
0.1 0.4 0.5
0.1 0.4 0.6
0.1 0.4 0.7
0.1 0.4 0.8
0.1 0.4 0.9
0.1 0.4 1
0.1 0.4 1.1
0.1 0.4 1.2
0.1 0.4 1.3
0.1 0.4 1.4
0.1 0.4 1.5
0.1 0.4 1.6
0.1 0.4 1.7
0.1 0.4 1.8
0.1 0.4 1.9
0.1 0.4 2
0.1 0.5 0
0.1 0.5 0.1
0.1 0.5 0.2
0.1 0.5 0.3
0.1 0.5 0.4
0.1 0.5 0.5
0.1 0.5 0.6
0.1 0.5 0.7
0.1 0.5 0.8
0.1 0.5 0.9
0.1 0.5 1
0.1 0.5 1.1
0.1 0.5 1.2
0.1 0.5 1.3
0.1 0.5 1.4
0.1 0.5 1.5
0.1 0.5 1.6
0.1 0.5 1.7
0.1 0.5 1.8
0.1 0.5 1.9
0.1 0.5 2
0.1 0.6 0
0.1 0.6 0.1
0.1 0.6 0.2
0.1 0.6 0.3
0.1 0.6 0.4
0.1 0.6 0.5
0.1 0.6 0.6
0.1 0.6 0.7
0.1 0.6 0.8
0.1 0.6 0.9
0.1 0.6 1
0.1 0.6 1.1
0.1 0.6 1.2
0.1 0.6 1.3
0.1 0.6 1.4
0.1 0.6 1.5
0.1 0.6 1.6
0.1 0.6 1.7
0.1 0.6 1.8
0.1 0.6 1.9
0.1 0.6 2
0.1 0.7 0
0.1 0.7 0.1
0.1 0.7 0.2
0.1 0.7 0.3
0.1 0.7 0.4
0.1 0.7 0.5
0.1 0.7 0.6
0.1 0.7 0.7
0.1 0.7 0.8
0.1 0.7 0.9
0.1 0.7 1
0.1 0.7 1.1
0.1 0.7 1.2
0.1 0.7 1.3
0.1 0.7 1.4
0.1 0.7 1.5
0.1 0.7 1.6
0.1 0.7 1.7
0.1 0.7 1.8
0.1 0.7 1.9
0.1 0.7 2
0.1 0.8 0
0.1 0.8 0.1
0.1 0.8 0.2
0.1 0.8 0.3
0.1 0.8 0.4
0.1 0.8 0.5
0.1 0.8 0.6
0.1 0.8 0.7
0.1 0.8 0.8
0.1 0.8 0.9
0.1 0.8 1
0.1 0.8 1.1
0.1 0.8 1.2
0.1 0.8 1.3
0.1 0.8 1.4
0.1 0.8 1.5
0.1 0.8 1.6
0.1 0.8 1.7
0.1 0.8 1.8
0.1 0.8 1.9
0.1 0.8 2
0.1 0.9 0
0.1 0.9 0.1
0.1 0.9 0.2
0.1 0.9 0.3
0.1 0.9 0.4
0.1 0.9 0.5
0.1 0.9 0.6
0.1 0.9 0.7
0.1 0.9 0.8
0.1 0.9 0.9
0.1 0.9 1
0.1 0.9 1.1
0.1 0.9 1.2
0.1 0.9 1.3
0.1 0.9 1.4
0.1 0.9 1.5
0.1 0.9 1.6
0.1 0.9 1.7
0.1 0.9 1.8
0.1 0.9 1.9
0.1 0.9 2
0.1 1 0
0.1 1 0.1
0.1 1 0.2
0.1 1 0.3
0.1 1 0.4
0.1 1 0.5
0.1 1 0.6
0.1 1 0.7
0.1 1 0.8
0.1 1 0.9
0.1 1 1
0.1 1 1.1
0.1 1 1.2
0.1 1 1.3
0.1 1 1.4
0.1 1 1.5
0.1 1 1.6
0.1 1 1.7
0.1 1 1.8
0.1 1 1.9
0.1 1 2
0.1 1.1 0
0.1 1.1 0.1
0.1 1.1 0.2
0.1 1.1 0.3
0.1 1.1 0.4
0.1 1.1 0.5
0.1 1.1 0.6
0.1 1.1 0.7
0.1 1.1 0.8
0.1 1.1 0.9
0.1 1.1 1
0.1 1.1 1.1
0.1 1.1 1.2
0.1 1.1 1.3
0.1 1.1 1.4
0.1 1.1 1.5
0.1 1.1 1.6
0.1 1.1 1.7
0.1 1.1 1.8
0.1 1.1 1.9
0.1 1.1 2
0.1 1.2 0
0.1 1.2 0.1
0.1 1.2 0.2
0.1 1.2 0.3
0.1 1.2 0.4
0.1 1.2 0.5
0.1 1.2 0.6
0.1 1.2 0.7
0.1 1.2 0.8
0.1 1.2 0.9
0.1 1.2 1
0.1 1.2 1.1
0.1 1.2 1.2
0.1 1.2 1.3
0.1 1.2 1.4
0.1 1.2 1.5
0.1 1.2 1.6
0.1 1.2 1.7
0.1 1.2 1.8
0.1 1.2 1.9
0.1 1.2 2
0.1 1.3 0
0.1 1.3 0.1
0.1 1.3 0.2
0.1 1.3 0.3
0.1 1.3 0.4
0.1 1.3 0.5
0.1 1.3 0.6
0.1 1.3 0.7
0.1 1.3 0.8
0.1 1.3 0.9
0.1 1.3 1
0.1 1.3 1.1
0.1 1.3 1.2
0.1 1.3 1.3
0.1 1.3 1.4
0.1 1.3 1.5
0.1 1.3 1.6
0.1 1.3 1.7
0.1 1.3 1.8
0.1 1.3 1.9
0.1 1.3 2
0.1 1.4 0
0.1 1.4 0.1
0.1 1.4 0.2
0.1 1.4 0.3
0.1 1.4 0.4
0.1 1.4 0.5
0.1 1.4 0.6
0.1 1.4 0.7
0.1 1.4 0.8
0.1 1.4 0.9
0.1 1.4 1
0.1 1.4 1.1
0.1 1.4 1.2
0.1 1.4 1.3
0.1 1.4 1.4
0.1 1.4 1.5
0.1 1.4 1.6
0.1 1.4 1.7
0.1 1.4 1.8
0.1 1.4 1.9
0.1 1.4 2
0.1 1.5 0
0.1 1.5 0.1
0.1 1.5 0.2
0.1 1.5 0.3
0.1 1.5 0.4
0.1 1.5 0.5
0.1 1.5 0.6
0.1 1.5 0.7
0.1 1.5 0.8
0.1 1.5 0.9
0.1 1.5 1
0.1 1.5 1.1
0.1 1.5 1.2
0.1 1.5 1.3
0.1 1.5 1.4
0.1 1.5 1.5
0.1 1.5 1.6
0.1 1.5 1.7
0.1 1.5 1.8
0.1 1.5 1.9
0.1 1.5 2
0.1 1.6 0
0.1 1.6 0.1
0.1 1.6 0.2
0.1 1.6 0.3
0.1 1.6 0.4
0.1 1.6 0.5
0.1 1.6 0.6
0.1 1.6 0.7
0.1 1.6 0.8
0.1 1.6 0.9
0.1 1.6 1
0.1 1.6 1.1
0.1 1.6 1.2
0.1 1.6 1.3
0.1 1.6 1.4
0.1 1.6 1.5
0.1 1.6 1.6
0.1 1.6 1.7
0.1 1.6 1.8
0.1 1.6 1.9
0.1 1.6 2
0.1 1.7 0
0.1 1.7 0.1
0.1 1.7 0.2
0.1 1.7 0.3
0.1 1.7 0.4
0.1 1.7 0.5
0.1 1.7 0.6
0.1 1.7 0.7
0.1 1.7 0.8
0.1 1.7 0.9
0.1 1.7 1
0.1 1.7 1.1
0.1 1.7 1.2
0.1 1.7 1.3
0.1 1.7 1.4
0.1 1.7 1.5
0.1 1.7 1.6
0.1 1.7 1.7
0.1 1.7 1.8
0.1 1.7 1.9
0.1 1.7 2
0.1 1.8 0
0.1 1.8 0.1
0.1 1.8 0.2
0.1 1.8 0.3
0.1 1.8 0.4
0.1 1.8 0.5
0.1 1.8 0.6
0.1 1.8 0.7
0.1 1.8 0.8
0.1 1.8 0.9
0.1 1.8 1
0.1 1.8 1.1
0.1 1.8 1.2
0.1 1.8 1.3
0.1 1.8 1.4
0.1 1.8 1.5
0.1 1.8 1.6
0.1 1.8 1.7
0.1 1.8 1.8
0.1 1.8 1.9
0.1 1.8 2
0.1 1.9 0
0.1 1.9 0.1
0.1 1.9 0.2
0.1 1.9 0.3
0.1 1.9 0.4
0.1 1.9 0.5
0.1 1.9 0.6
0.1 1.9 0.7
0.1 1.9 0.8
0.1 1.9 0.9
0.1 1.9 1
0.1 1.9 1.1
0.1 1.9 1.2
0.1 1.9 1.3
0.1 1.9 1.4
0.1 1.9 1.5
0.1 1.9 1.6
0.1 1.9 1.7
0.1 1.9 1.8
0.1 1.9 1.9
0.1 1.9 2
0.1 2 0
0.1 2 0.1
0.1 2 0.2
0.1 2 0.3
0.1 2 0.4
0.1 2 0.5
0.1 2 0.6
0.1 2 0.7
0.1 2 0.8
0.1 2 0.9
0.1 2 1
0.1 2 1.1
0.1 2 1.2
0.1 2 1.3
0.1 2 1.4
0.1 2 1.5
0.1 2 1.6
0.1 2 1.7
0.1 2 1.8
0.1 2 1.9
0.1 2 2
0.2 0 0
0.2 0 0.1
0.2 0 0.2
0.2 0 0.3
0.2 0 0.4
0.2 0 0.5
0.2 0 0.6
0.2 0 0.7
0.2 0 0.8
0.2 0 0.9
0.2 0 1
0.2 0 1.1
0.2 0 1.2
0.2 0 1.3
0.2 0 1.4
0.2 0 1.5
0.2 0 1.6
0.2 0 1.7
0.2 0 1.8
0.2 0 1.9
0.2 0 2
0.2 0.1 0
0.2 0.1 0.1
0.2 0.1 0.2
0.2 0.1 0.3
0.2 0.1 0.4
0.2 0.1 0.5
0.2 0.1 0.6
0.2 0.1 0.7
0.2 0.1 0.8
0.2 0.1 0.9
0.2 0.1 1
0.2 0.1 1.1
0.2 0.1 1.2
0.2 0.1 1.3
0.2 0.1 1.4
0.2 0.1 1.5
0.2 0.1 1.6
0.2 0.1 1.7
0.2 0.1 1.8
0.2 0.1 1.9
0.2 0.1 2
0.2 0.2 0
0.2 0.2 0.1
0.2 0.2 0.2
0.2 0.2 0.3
0.2 0.2 0.4
0.2 0.2 0.5
0.2 0.2 0.6
0.2 0.2 0.7
0.2 0.2 0.8
0.2 0.2 0.9
0.2 0.2 1
0.2 0.2 1.1
0.2 0.2 1.2
0.2 0.2 1.3
0.2 0.2 1.4
0.2 0.2 1.5
0.2 0.2 1.6
0.2 0.2 1.7
0.2 0.2 1.8
0.2 0.2 1.9
[...]
CELL_DATA 8000
SCALARS Phi_sigma_(3D) float 1
LOOKUP_TABLE default
1.09769e-05
1.08593e-05
1.07207e-05
1.05982e-05
1.04733e-05
1.0343e-05
1.02052e-05
1.00563e-05
9.9003e-06
9.73224e-06
9.55633e-06
9.37685e-06
9.20337e-06
9.04492e-06
8.90342e-06
8.78165e-06
8.6901e-06
8.64173e-06
8.64944e-06
8.68952e-06
1.19753e-05
1.1798e-05
1.16283e-05
1.15047e-05
1.13708e-05
1.12302e-05
1.10829e-05
1.09197e-05
1.07535e-05
1.05694e-05
1.03766e-05
1.01774e-05
9.98518e-06
9.81291e-06
9.65841e-06
9.52119e-06
9.41571e-06
9.35739e-06
9.37846e-06
9.45895e-06
1.4274e-05
1.40864e-05
1.39051e-05
1.37711e-05
1.36223e-05
1.34643e-05
1.32917e-05
1.30944e-05
1.28917e-05
1.26696e-05
1.24396e-05
1.2198e-05
1.19608e-05
1.17455e-05
1.15525e-05
1.13823e-05
1.12452e-05
1.11583e-05
1.11631e-05
1.1246e-05
1.80553e-05
1.79359e-05
1.77819e-05
1.76291e-05
1.74591e-05
1.72704e-05
1.70527e-05
1.68028e-05
1.6534e-05
1.62476e-05
1.59513e-05
1.56413e-05
1.5332e-05
1.50407e-05
1.47771e-05
1.45483e-05
1.43583e-05
1.42229e-05
1.41682e-05
1.41836e-05
2.322e-05
2.3136e-05
2.30004e-05
2.2832e-05
2.26286e-05
2.23888e-05
2.21095e-05
2.17913e-05
2.14415e-05
2.10657e-05
2.06717e-05
2.02658e-05
1.98611e-05
1.94732e-05
1.91151e-05
1.87985e-05
1.85342e-05
1.83359e-05
1.82167e-05
1.81716e-05
2.9835e-05
2.97595e-05
2.96201e-05
2.94252e-05
2.91761e-05
2.88726e-05
2.85153e-05
2.81068e-05
2.76535e-05
2.71635e-05
2.66472e-05
2.61164e-05
2.55864e-05
2.50745e-05
2.45974e-05
2.41717e-05
2.3813e-05
2.3536e-05
2.33522e-05
2.32638e-05
3.8075e-05
3.79932e-05
3.78334e-05
3.75986e-05
3.72896e-05
3.69068e-05
3.64521e-05
3.59295e-05
3.53468e-05
3.47143e-05
3.40458e-05
3.33576e-05
3.2669e-05
3.20012e-05
3.1376e-05
3.08153e-05
3.03397e-05
2.99679e-05
2.97142e-05
2.95864e-05
4.8122e-05
4.80257e-05
4.78335e-05
4.75457e-05
4.71617e-05
4.66815e-05
4.61075e-05
4.5445e-05
4.47034e-05
4.38962e-05
4.30409e-05
4.21587e-05
4.12742e-05
4.04141e-05
3.96068e-05
3.88806e-05
3.82624e-05
3.77763e-05
3.74416e-05
3.72713e-05
6.01144e-05
5.9998e-05
5.97643e-05
5.94112e-05
5.89365e-05
5.83397e-05
5.7623e-05
5.67928e-05
5.58606e-05
5.48434e-05
5.37632e-05
5.2647e-05
5.15256e-05
5.04333e-05
4.9406e-05
4.84798e-05
4.76897e-05
4.70668e-05
4.66365e-05
4.64169e-05
7.4107e-05
7.39666e-05
7.36834e-05
7.32536e-05
7.26733e-05
7.19405e-05
7.10571e-05
7.00306e-05
6.8875e-05
6.7611e-05
6.62661e-05
6.48739e-05
6.3473e-05
6.21062e-05
6.08186e-05
5.9656e-05
5.86626e-05
5.78781e-05
5.73355e-05
5.70581e-05
9.0033e-05
8.98652e-05
8.95261e-05
8.90096e-05
8.83096e-05
8.74224e-05
8.63494e-05
8.5099e-05
8.36879e-05
8.21413e-05
8.04927e-05
7.87832e-05
7.70606e-05
7.53774e-05
7.37895e-05
7.23539e-05
7.11256e-05
7.01545e-05
6.94822e-05
6.91382e-05
0.000107668
0.00010747
0.00010707
0.000106458
0.000105627
0.000104569
0.000103287
0.000101788
0.000100093
9.82317e-05
9.62441e-05
9.41802e-05
9.20975e-05
9.00598e-05
8.81351e-05
8.63928e-05
8.49005e-05
8.37195e-05
8.29012e-05
8.24823e-05
0.000126601
0.000126372
0.000125907
0.000125195
0.000124224
0.000122985
0.000121478
0.000119712
0.000117711
0.00011551
0.000113156
0.000110708
0.000108235
0.000105812
0.000103522
0.000101446
9.96656e-05
9.82558e-05
9.72782e-05
9.67777e-05
0.000146226
0.000145965
0.000145434
0.000144619
0.000143504
0.000142078
0.000140339
0.000138297
0.000135978
0.000133422
0.000130686
0.000127838
0.000124956
0.000122131
0.000119456
0.00011703
0.000114948
0.000113298
0.000112152
0.000111566
0.000165749
0.000165456
0.000164861
0.000163946
0.00016269
0.000161078
0.000159109
0.000156791
0.000154155
0.000151246
0.000148128
0.000144878
0.000141587
0.000138357
0.000135297
0.000132519
0.000130132
0.00012824
0.000126925
0.000126252
0.000184233
0.000183911
0.000183257
0.000182247
0.000180858
0.000179072
0.000176885
0.000174307
0.00017137
0.000168125
0.000164643
0.000161011
0.00015733
0.000153714
0.000150286
0.000147171
0.000144494
0.000142369
0.000140893
0.000140136
0.000200665
0.000200319
0.000199612
0.000198519
0.000197013
0.000195073
0.000192693
0.000189883
0.000186677
0.000183133
0.000179327
0.000175353
0.000171324
0.000167363
0.000163605
0.000160189
0.00015725
0.000154917
0.000153296
0.000152465
0.000214053
0.000213687
0.000212937
0.000211777
0.000210177
0.000208112
0.000205574
0.000202575
0.000199151
0.000195363
0.000191291
0.000187038
0.000182724
0.00017848
0.000174452
0.000170789
0.000167636
0.000165132
0.000163391
0.000162499
0.000223526
0.000223145
0.000222366
0.000221159
0.000219492
0.000217339
0.00021469
0.000211557
0.000207979
0.000204017
0.000199757
0.000195306
0.000190789
0.000186345
0.000182125
0.000178286
0.000174981
0.000172355
0.00017053
0.000169594
0.000228436
0.000228048
0.000227254
0.000226023
0.000224321
0.000222122
0.000219415
0.000216213
0.000212554
0.000208502
0.000204145
0.000199591
0.000194969
0.000190421
0.000186102
0.000182171
0.000178787
0.000176098
0.000174228
0.000173269
1.1986e-05
1.18114e-05
1.16431e-05
1.15196e-05
1.1386e-05
1.12459e-05
1.10986e-05
1.09349e-05
1.0768e-05
1.05838e-05
1.03912e-05
1.01919e-05
9.99918e-06
9.82624e-06
9.67142e-06
9.53439e-06
9.4287e-06
9.36961e-06
9.38935e-06
9.46853e-06
1.29105e-05
1.24694e-05
1.22125e-05
1.21339e-05
1.19794e-05
1.18228e-05
1.16756e-05
1.14921e-05
1.13398e-05
1.11376e-05
1.09306e-05
1.07076e-05
1.04967e-05
1.03271e-05
1.0173e-05
1.00161e-05
9.89547e-06
9.81411e-06
9.88876e-06
1.01613e-05
1.5426e-05
1.49341e-05
1.46426e-05
1.45562e-05
1.43834e-05
1.42177e-05
1.40463e-05
1.38158e-05
1.36225e-05
1.33787e-05
1.31433e-05
1.28716e-05
1.26046e-05
1.23861e-05
1.21926e-05
1.20099e-05
1.18546e-05
1.17314e-05
1.17948e-05
1.21226e-05
1.98764e-05
1.96847e-05
1.94779e-05
1.93154e-05
1.91306e-05
1.89411e-05
1.87072e-05
1.84183e-05
1.81189e-05
1.78029e-05
1.74925e-05
1.71445e-05
1.67898e-05
1.64618e-05
1.61713e-05
1.59298e-05
1.57137e-05
1.5545e-05
1.54968e-05
1.55933e-05
2.58046e-05
2.57015e-05
2.55469e-05
2.53637e-05
2.51405e-05
2.48773e-05
2.4568e-05
2.42124e-05
2.3822e-05
2.34015e-05
2.2961e-05
2.25042e-05
2.20476e-05
2.161e-05
2.12058e-05
2.0848e-05
2.05465e-05
2.03182e-05
2.01846e-05
2.01439e-05
3.33412e-05
3.32567e-05
3.31029e-05
3.28886e-05
3.26129e-05
3.22755e-05
3.18765e-05
3.14188e-05
3.09097e-05
3.03579e-05
2.97751e-05
2.91748e-05
2.85745e-05
2.79936e-05
2.74512e-05
2.6966e-05
2.65559e-05
2.62384e-05
2.60278e-05
2.59274e-05
4.27749e-05
4.26845e-05
4.2508e-05
4.22477e-05
4.19035e-05
4.14753e-05
4.09647e-05
4.0376e-05
3.97177e-05
3.90014e-05
3.82426e-05
3.746e-05
3.66756e-05
3.59135e-05
3.51988e-05
3.45565e-05
3.40107e-05
3.35832e-05
3.3291e-05
3.31438e-05
5.436e-05
5.42532e-05
5.40397e-05
5.37187e-05
5.32885e-05
5.27485e-05
5.21005e-05
5.13501e-05
5.05076e-05
4.95882e-05
4.86118e-05
4.76027e-05
4.65891e-05
4.56018e-05
4.46734e-05
4.38367e-05
4.31233e-05
4.25615e-05
4.21743e-05
4.1977e-05
6.82921e-05
6.81625e-05
6.79016e-05
6.75059e-05
6.69719e-05
6.62973e-05
6.54839e-05
6.45383e-05
6.34733e-05
6.23079e-05
6.10675e-05
5.97829e-05
5.849e-05
5.72281e-05
5.60392e-05
5.49656e-05
5.40481e-05
5.33238e-05
5.28229e-05
5.25671e-05
8.46696e-05
8.45128e-05
8.41956e-05
8.37122e-05
8.30564e-05
8.22242e-05
8.12165e-05
8.0041e-05
7.87131e-05
7.72565e-05
7.57029e-05
7.40909e-05
7.24656e-05
7.08766e-05
6.93769e-05
6.80204e-05
6.68592e-05
6.5941e-05
6.53051e-05
6.49798e-05
0.000103447
0.00010326
0.000102879
0.000102296
0.000101502
0.00010049
9.92598e-05
9.78203e-05
9.61898e-05
9.43971e-05
9.24813e-05
9.049e-05
8.8479e-05
8.65099e-05
8.46486e-05
8.29624e-05
8.15171e-05
8.03727e-05
7.95793e-05
7.91732e-05
0.000124389
0.000124167
0.000123717
0.000123025
0.000122078
0.000120867
0.00011939
0.000117656
0.000115687
0.000113517
0.000111194
0.000108776
0.00010633
0.000103931
0.000101661
9.96013e-05
9.78338e-05
9.64326e-05
9.54604e-05
9.49624e-05
0.000147027
0.00014677
0.000146246
0.000145438
0.000144329
0.000142904
0.000141161
0.000139108
0.000136771
0.000134192
0.000131426
0.000128541
0.00012562
0.000122752
0.000120034
0.000117565
0.000115443
0.00011376
0.000112591
0.000111992
0.000170642
0.000170349
0.00016975
0.000168824
0.000167548
0.000165902
0.000163882
0.000161497
0.000158776
0.000155767
0.000152535
0.000149161
0.00014574
0.000142377
0.000139185
0.000136283
0.000133787
0.000131804
0.000130427
0.00012972
0.000194273
0.000193945
0.000193273
0.000192231
0.000190789
0.000188924
0.000186628
0.00018391
0.000180804
0.000177363
0.000173663
0.000169796
0.00016587
0.000162007
0.000158337
0.000154996
0.00015212
0.000149833
0.000148243
0.000147428
0.000216761
0.0002164
0.00021566
0.00021451
0.000212912
0.00021084
0.000208282
0.000205248
0.000201774
0.000197921
0.000193773
0.000189434
0.000185024
0.000180681
0.000176552
0.00017279
0.000169548
0.000166969
0.000165174
0.000164254
0.000236839
0.00023645
0.000235651
0.000234405
0.000232671
0.000230415
0.000227623
0.000224306
0.000220504
0.000216282
0.000211732
0.000206969
0.000202126
0.000197352
0.000192809
0.000188667
0.000185096
0.000182253
0.000180273
0.000179258
0.000253253
0.000252842
0.000251995
0.000250672
0.000248826
0.00024642
0.000243438
0.000239891
0.000235819
0.000231295
0.000226416
0.000221305
0.000216105
0.000210977
0.000206094
0.00020164
0.000197797
0.000194736
0.000192605
0.000191511
0.000264896
0.000264468
0.000263588
0.00026221
0.000260286
0.000257775
0.000254658
0.000250947
0.000246684
0.000241945
0.000236832
0.000231474
0.00022602
0.00022064
0.000215515
0.000210838
0.000206802
0.000203586
0.000201346
0.000200196
0.000270939
0.000270504
0.000269606
0.0002682
0.000266235
0.000263669
0.000260483
0.000256686
0.000252325
0.000247474
0.000242239
0.000236752
0.000231167
0.000225655
0.000220404
0.000215612
0.000211474
0.000208178
0.000205881
0.000204702
1.43055e-05
1.41302e-05
1.39535e-05
1.38181e-05
1.36704e-05
1.35148e-05
1.3342e-05
1.31429e-05
1.29373e-05
1.2715e-05
1.24865e-05
1.22446e-05
1.20055e-05
1.17876e-05
1.15934e-05
1.14247e-05
1.12871e-05
1.11978e-05
1.11978e-05
1.12751e-05
1.54611e-05
1.5019e-05
1.47309e-05
1.46292e-05
1.44608e-05
1.43099e-05
1.41384e-05
1.38996e-05
1.36938e-05
1.34514e-05
1.32285e-05
1.29566e-05
1.26818e-05
1.24531e-05
1.2257e-05
1.20872e-05
1.19321e-05
1.18019e-05
1.18535e-05
1.21707e-05
1.85972e-05
1.80877e-05
1.77833e-05
1.76853e-05
1.7489e-05
1.72903e-05
1.70817e-05
1.68089e-05
1.65693e-05
1.6271e-05
1.59756e-05
1.56434e-05
1.53176e-05
1.50424e-05
1.47938e-05
1.45575e-05
1.43571e-05
1.41988e-05
1.42405e-05
1.45607e-05
2.40111e-05
2.37473e-05
2.35484e-05
2.33995e-05
2.31752e-05
2.28976e-05
2.26096e-05
2.22929e-05
2.19589e-05
2.15657e-05
2.11326e-05
2.07052e-05
2.02951e-05
1.99135e-05
1.95488e-05
1.91945e-05
1.89168e-05
1.87263e-05
1.86602e-05
1.87023e-05
3.12649e-05
3.11433e-05
3.09736e-05
3.07673e-05
3.05018e-05
3.01778e-05
2.98025e-05
2.93759e-05
2.89041e-05
2.83865e-05
2.78359e-05
2.72716e-05
2.67112e-05
2.61719e-05
2.56663e-05
2.52095e-05
2.48278e-05
2.45401e-05
2.43642e-05
2.4295e-05
4.06677e-05
4.05697e-05
4.03914e-05
4.0139e-05
3.98084e-05
3.93989e-05
3.89125e-05
3.8353e-05
3.77275e-05
3.70455e-05
3.63217e-05
3.55754e-05
3.4828e-05
3.41025e-05
3.34217e-05
3.28095e-05
3.22908e-05
3.18876e-05
3.16169e-05
3.14846e-05
5.26068e-05
5.24999e-05
5.229e-05
5.19776e-05
5.15606e-05
5.10377e-05
5.04103e-05
4.96835e-05
4.88668e-05
4.79745e-05
4.70258e-05
4.60446e-05
4.50585e-05
4.40977e-05
4.31938e-05
4.2379e-05
4.16846e-05
4.1139e-05
4.07645e-05
4.05748e-05
6.74573e-05
6.73292e-05
6.70719e-05
6.66825e-05
6.61567e-05
6.54918e-05
6.46889e-05
6.37539e-05
6.26992e-05
6.15434e-05
6.03115e-05
5.90344e-05
5.77478e-05
5.6491e-05
5.53059e-05
5.42349e-05
5.33194e-05
5.25966e-05
5.20973e-05
5.18424e-05
8.5535e-05
8.53784e-05
8.50615e-05
8.45778e-05
8.39199e-05
8.30828e-05
8.20664e-05
8.08777e-05
7.9532e-05
7.80531e-05
7.64731e-05
7.48315e-05
7.3174e-05
7.15517e-05
7.00187e-05
6.86305e-05
6.74412e-05
6.65001e-05
6.58482e-05
6.55147e-05
0.000107039
0.000106849
0.000106461
0.000105867
0.000105054
0.000104013
0.000102743
0.000101253
9.95594e-05
9.76935e-05
9.56954e-05
9.36151e-05
9.15107e-05
8.94471e-05
8.74934e-05
8.57211e-05
8.41999e-05
8.29942e-05
8.21577e-05
8.17292e-05
0.000131982
0.000131753
0.000131286
0.000130566
0.000129575
0.000128301
0.000126739
0.000124897
0.000122799
0.000120482
0.000117994
0.0001154
0.00011277
0.000110187
0.000107738
0.000105512
0.000103598
0.000102079
0.000101024
0.000100483
0.000160112
0.000159841
0.000159288
0.000158429
0.000157242
0.000155707
0.000153817
0.00015158
0.000149024
0.000146194
0.00014315
0.00013997
0.000136741
0.000133564
0.000130547
0.000127801
0.000125436
0.000123557
0.00012225
0.000121579
0.000190847
0.000190533
0.000189888
0.000188883
0.000187485
0.000185668
0.000183422
0.000180754
0.000177696
0.000174302
0.000170646
0.00016682
0.00016293
0.000159096
0.000155449
0.000152125
0.000149258
0.000146977
0.000145389
0.000144574
0.000223231
0.000222873
0.000222136
0.00022098
0.000219365
0.000217255
0.000214634
0.000211512
0.000207924
0.000203934
0.000199629
0.000195116
0.000190522
0.000185988
0.000181669
0.000177727
0.000174323
0.000171611
0.000169722
0.000168751
0.00025593
0.00025553
0.000254702
0.000253399
0.000251568
0.000249165
0.000246169
0.000242588
0.000238465
0.00023387
0.000228905
0.000223694
0.000218383
0.000213136
0.00020813
0.000203556
0.000199602
0.000196447
0.000194248
0.000193118
0.000287294
0.000286855
0.000285944
0.000284503
0.000282469
0.000279788
0.000276433
0.000272413
0.000267774
0.000262598
0.000256997
0.000251113
0.000245109
0.000239171
0.000233501
0.000228313
0.000223824
0.00022024
0.000217739
0.000216453
0.000315482
0.00031501
0.000314027
0.000312465
0.00031025
0.000307321
0.000303646
0.000299231
0.000294129
0.000288428
0.000282253
0.000275761
0.000269131
0.000262568
0.000256296
0.000250552
0.000245577
0.000241601
0.000238826
0.000237398
0.000338645
0.000338147
0.000337105
0.000335446
0.000333085
0.000329953
0.000326015
0.000321276
0.000315792
0.000309659
0.000303012
0.000296017
0.000288871
0.000281791
0.000275021
0.000268817
0.00026344
0.00025914
0.000256137
0.000254591
0.000355136
0.000354618
0.000353536
0.000351808
0.000349344
0.000346069
0.000341943
0.000336974
0.000331218
0.000324777
0.000317793
0.00031044
0.000302924
0.000295476
0.00028835
0.000281816
0.000276151
0.000271619
0.000268452
0.000266822
0.000363714
0.000363187
0.000362084
0.00036032
0.000357803
0.000354453
0.000350231
0.000345142
0.000339245
0.000332643
0.000325483
0.000317943
0.000310235
0.000302594
0.000295282
0.000288577
0.000282761
0.000278108
0.000274856
0.000273182
1.80976e-05
1.79849e-05
1.78385e-05
1.76885e-05
1.75182e-05
1.73257e-05
1.71066e-05
1.68587e-05
1.65909e-05
1.63031e-05
1.60023e-05
1.56915e-05
1.53835e-05
1.50928e-05
1.48274e-05
1.45942e-05
1.44028e-05
1.42681e-05
1.42093e-05
1.42131e-05
1.99439e-05
1.97645e-05
1.95794e-05
1.94232e-05
1.92371e-05
1.90288e-05
1.87907e-05
1.85138e-05
1.82211e-05
1.79023e-05
1.75716e-05
1.72237e-05
1.68778e-05
1.65553e-05
1.62615e-05
1.60013e-05
1.57836e-05
1.56263e-05
1.55749e-05
1.56261e-05
2.39655e-05
2.36997e-05
2.34778e-05
2.33188e-05
2.30977e-05
2.28477e-05
2.25652e-05
2.22303e-05
2.18841e-05
2.14942e-05
2.10895e-05
2.06618e-05
2.02378e-05
1.98456e-05
1.9484e-05
1.91557e-05
1.88797e-05
1.86717e-05
1.86042e-05
1.86982e-05
3.06507e-05
3.04975e-05
3.03104e-05
3.01055e-05
2.98419e-05
2.95225e-05
2.91549e-05
2.87364e-05
2.82766e-05
2.77694e-05
2.72297e-05
2.66754e-05
2.61258e-05
2.55994e-05
2.51063e-05
2.46592e-05
2.42861e-05
2.40077e-05
2.38506e-05
2.38086e-05
3.99806e-05
3.98684e-05
3.96813e-05
3.9429e-05
3.91011e-05
3.86963e-05
3.82177e-05
3.76678e-05
3.70538e-05
3.63824e-05
3.56688e-05
3.49328e-05
3.41967e-05
3.3483e-05
3.2813e-05
3.22095e-05
3.16993e-05
3.1306e-05
3.10484e-05
3.09285e-05
5.23899e-05
5.22777e-05
5.20635e-05
5.17502e-05
5.13337e-05
5.08122e-05
5.0187e-05
4.94627e-05
4.86483e-05
4.77572e-05
4.68086e-05
4.5827e-05
4.48403e-05
4.38788e-05
4.29739e-05
4.21576e-05
4.14626e-05
4.09181e-05
4.05468e-05
4.03608e-05
6.84275e-05
6.82962e-05
6.80346e-05
6.76401e-05
6.71079e-05
6.64343e-05
6.562e-05
6.46704e-05
6.35978e-05
6.24207e-05
6.11646e-05
5.98611e-05
5.85468e-05
5.7262e-05
5.60495e-05
5.49532e-05
5.40158e-05
5.32763e-05
5.27661e-05
5.25063e-05
8.86731e-05
8.8512e-05
8.81863e-05
8.76888e-05
8.70108e-05
8.6146e-05
8.50934e-05
8.38596e-05
8.24601e-05
8.09193e-05
7.92707e-05
7.75555e-05
7.58217e-05
7.41228e-05
7.25157e-05
7.1059e-05
6.98102e-05
6.88215e-05
6.81366e-05
6.77863e-05
0.000113661
0.000113462
0.000113057
0.000112434
0.000111579
0.00011048
0.000109135
0.00010755
0.000105745
0.000103753
0.000101615
9.93849e-05
9.7126e-05
9.49077e-05
9.28048e-05
9.08946e-05
8.92532e-05
8.7951e-05
8.70469e-05
8.65837e-05
0.000143785
0.000143542
0.000143045
0.000142275
0.000141209
0.000139832
0.000138136
0.000136128
0.000133833
0.000131292
0.000128558
0.0001257
0.0001228
0.000119945
0.000117234
0.000114766
0.000112641
0.000110952
0.000109778
0.000109175
0.000179185
0.000178893
0.000178293
0.000177355
0.000176049
0.000174348
0.000172242
0.000169738
0.000166866
0.000163675
0.000160234
0.000156631
0.000152966
0.000149353
0.000145914
0.000142777
0.000140071
0.000137917
0.000136418
0.000135648
0.00021962
0.000219275
0.000218561
0.00021744
0.000215866
0.000213802
0.000211231
0.000208161
0.000204626
0.000200689
0.000196435
0.000191972
0.000187423
0.00018293
0.000178646
0.000174731
0.000171348
0.000168651
0.00016677
0.000165804
0.000264337
0.000263937
0.000263106
0.000261789
0.000259927
0.000257468
0.000254387
0.000250691
0.000246423
0.000241656
0.000236496
0.000231072
0.000225535
0.000220056
0.000214823
0.000210032
0.000205885
0.000202573
0.000200261
0.000199073
0.000311985
0.000311531
0.000310582
0.000309066
0.000306904
0.000304031
0.000300411
0.00029605
0.000290998
0.000285344
0.000279211
0.000272754
0.000266154
0.000259613
0.000253354
0.000247615
0.000242639
0.000238659
0.000235878
0.000234446
0.000360589
0.000360084
0.000359021
0.00035731
0.000354852
0.000351562
0.000347396
0.000342358
0.000336505
0.000329941
0.000322811
0.000315294
0.000307599
0.000299962
0.000292645
0.000285925
0.00028009
0.000275416
0.000272146
0.000270462
0.000407625
0.000407073
0.000405906
0.000404014
0.000401276
0.000397588
0.000392897
0.000387204
0.000380575
0.000373128
0.000365028
0.000356478
0.000347716
0.000339011
0.000330658
0.000322978
0.000316299
0.000310943
0.000307192
0.000305259
0.00045021
0.00044962
0.000448364
0.000446313
0.000443326
0.000439282
0.000434118
0.000427833
0.000420501
0.000412252
0.00040327
0.00039378
0.000384047
0.000374367
0.000365069
0.00035651
0.000349059
0.000343078
0.000338885
0.000336724
0.000485405
0.000484783
0.000483456
0.000481278
0.000478088
0.000473753
0.000468199
0.000461426
0.000453511
0.000444598
0.000434885
0.000424617
0.000414077
0.000403586
0.000393502
0.000384212
0.000376118
0.000369614
0.000365053
0.0003627
0.000510561
0.000509919
0.000508542
0.000506274
0.000502942
0.0004984
0.000492568
0.000485446
0.000477115
0.000467726
0.000457489
0.000446662
0.000435543
0.000424472
0.000413824
0.000404007
0.00039545
0.000388571
0.000383744
0.000381254
0.000523679
0.000523026
0.000521624
0.00051931
0.000515904
0.000511254
0.000505277
0.000497973
0.000489425
0.000479788
0.000469277
0.000458159
0.000446738
0.000435362
0.000424419
0.000414328
0.000405528
0.000398453
0.000393487
0.000390925
2.3248e-05
2.31669e-05
2.30348e-05
2.28681e-05
2.26646e-05
2.24233e-05
2.21434e-05
2.18258e-05
2.14763e-05
2.10996e-05
2.07037e-05
2.02971e-05
1.98928e-05
1.95049e-05
1.91457e-05
1.88272e-05
1.85618e-05
1.8363e-05
1.82414e-05
1.81919e-05
2.58311e-05
2.57312e-05
2.55813e-05
2.53999e-05
2.51765e-05
2.49103e-05
2.46002e-05
2.42462e-05
2.38566e-05
2.34352e-05
2.29914e-05
2.25342e-05
2.20786e-05
2.16416e-05
2.12362e-05
2.08753e-05
2.05729e-05
2.03454e-05
2.02098e-05
2.01615e-05
3.12608e-05
3.1139e-05
3.09657e-05
3.07575e-05
3.0493e-05
3.01738e-05
2.97995e-05
2.93698e-05
2.88956e-05
2.83788e-05
2.78327e-05
2.72686e-05
2.67056e-05
2.61642e-05
2.56593e-05
2.52066e-05
2.48253e-05
2.45348e-05
2.43591e-05
2.42975e-05
3.99799e-05
3.98676e-05
3.96798e-05
3.94271e-05
3.90995e-05
3.86956e-05
3.82172e-05
3.76667e-05
3.70522e-05
3.6381e-05
3.56682e-05
3.49323e-05
3.41957e-05
3.34816e-05
3.28117e-05
3.22089e-05