# vtk DataFile Version 2.0
Pressure 3D1D coupled problem
ASCII
DATASET UNSTRUCTURED_GRID
POINTS 9261 float
0 0 0
0 0 0.1
0 0 0.2
0 0 0.3
0 0 0.4
0 0 0.5
0 0 0.6
0 0 0.7
0 0 0.8
0 0 0.9
0 0 1
0 0 1.1
0 0 1.2
0 0 1.3
0 0 1.4
0 0 1.5
0 0 1.6
0 0 1.7
0 0 1.8
0 0 1.9
0 0 2
0 0.1 0
0 0.1 0.1
0 0.1 0.2
0 0.1 0.3
0 0.1 0.4
0 0.1 0.5
0 0.1 0.6
0 0.1 0.7
0 0.1 0.8
0 0.1 0.9
0 0.1 1
0 0.1 1.1
0 0.1 1.2
0 0.1 1.3
0 0.1 1.4
0 0.1 1.5
0 0.1 1.6
0 0.1 1.7
0 0.1 1.8
0 0.1 1.9
0 0.1 2
0 0.2 0
0 0.2 0.1
0 0.2 0.2
0 0.2 0.3
0 0.2 0.4
0 0.2 0.5
0 0.2 0.6
0 0.2 0.7
0 0.2 0.8
0 0.2 0.9
0 0.2 1
0 0.2 1.1
0 0.2 1.2
0 0.2 1.3
0 0.2 1.4
0 0.2 1.5
0 0.2 1.6
0 0.2 1.7
0 0.2 1.8
0 0.2 1.9
0 0.2 2
0 0.3 0
0 0.3 0.1
0 0.3 0.2
0 0.3 0.3
0 0.3 0.4
0 0.3 0.5
0 0.3 0.6
0 0.3 0.7
0 0.3 0.8
0 0.3 0.9
0 0.3 1
0 0.3 1.1
0 0.3 1.2
0 0.3 1.3
0 0.3 1.4
0 0.3 1.5
0 0.3 1.6
0 0.3 1.7
0 0.3 1.8
0 0.3 1.9
0 0.3 2
0 0.4 0
0 0.4 0.1
0 0.4 0.2
0 0.4 0.3
0 0.4 0.4
0 0.4 0.5
0 0.4 0.6
0 0.4 0.7
0 0.4 0.8
0 0.4 0.9
0 0.4 1
0 0.4 1.1
0 0.4 1.2
0 0.4 1.3
0 0.4 1.4
0 0.4 1.5
0 0.4 1.6
0 0.4 1.7
0 0.4 1.8
0 0.4 1.9
0 0.4 2
0 0.5 0
0 0.5 0.1
0 0.5 0.2
0 0.5 0.3
0 0.5 0.4
0 0.5 0.5
0 0.5 0.6
0 0.5 0.7
0 0.5 0.8
0 0.5 0.9
0 0.5 1
0 0.5 1.1
0 0.5 1.2
0 0.5 1.3
0 0.5 1.4
0 0.5 1.5
0 0.5 1.6
0 0.5 1.7
0 0.5 1.8
0 0.5 1.9
0 0.5 2
0 0.6 0
0 0.6 0.1
0 0.6 0.2
0 0.6 0.3
0 0.6 0.4
0 0.6 0.5
0 0.6 0.6
0 0.6 0.7
0 0.6 0.8
0 0.6 0.9
0 0.6 1
0 0.6 1.1
0 0.6 1.2
0 0.6 1.3
0 0.6 1.4
0 0.6 1.5
0 0.6 1.6
0 0.6 1.7
0 0.6 1.8
0 0.6 1.9
0 0.6 2
0 0.7 0
0 0.7 0.1
0 0.7 0.2
0 0.7 0.3
0 0.7 0.4
0 0.7 0.5
0 0.7 0.6
0 0.7 0.7
0 0.7 0.8
0 0.7 0.9
0 0.7 1
0 0.7 1.1
0 0.7 1.2
0 0.7 1.3
0 0.7 1.4
0 0.7 1.5
0 0.7 1.6
0 0.7 1.7
0 0.7 1.8
0 0.7 1.9
0 0.7 2
0 0.8 0
0 0.8 0.1
0 0.8 0.2
0 0.8 0.3
0 0.8 0.4
0 0.8 0.5
0 0.8 0.6
0 0.8 0.7
0 0.8 0.8
0 0.8 0.9
0 0.8 1
0 0.8 1.1
0 0.8 1.2
0 0.8 1.3
0 0.8 1.4
0 0.8 1.5
0 0.8 1.6
0 0.8 1.7
0 0.8 1.8
0 0.8 1.9
0 0.8 2
0 0.9 0
0 0.9 0.1
0 0.9 0.2
0 0.9 0.3
0 0.9 0.4
0 0.9 0.5
0 0.9 0.6
0 0.9 0.7
0 0.9 0.8
0 0.9 0.9
0 0.9 1
0 0.9 1.1
0 0.9 1.2
0 0.9 1.3
0 0.9 1.4
0 0.9 1.5
0 0.9 1.6
0 0.9 1.7
0 0.9 1.8
0 0.9 1.9
0 0.9 2
0 1 0
0 1 0.1
0 1 0.2
0 1 0.3
0 1 0.4
0 1 0.5
0 1 0.6
0 1 0.7
0 1 0.8
0 1 0.9
0 1 1
0 1 1.1
0 1 1.2
0 1 1.3
0 1 1.4
0 1 1.5
0 1 1.6
0 1 1.7
0 1 1.8
0 1 1.9
0 1 2
0 1.1 0
0 1.1 0.1
0 1.1 0.2
0 1.1 0.3
0 1.1 0.4
0 1.1 0.5
0 1.1 0.6
0 1.1 0.7
0 1.1 0.8
0 1.1 0.9
0 1.1 1
0 1.1 1.1
0 1.1 1.2
0 1.1 1.3
0 1.1 1.4
0 1.1 1.5
0 1.1 1.6
0 1.1 1.7
0 1.1 1.8
0 1.1 1.9
0 1.1 2
0 1.2 0
0 1.2 0.1
0 1.2 0.2
0 1.2 0.3
0 1.2 0.4
0 1.2 0.5
0 1.2 0.6
0 1.2 0.7
0 1.2 0.8
0 1.2 0.9
0 1.2 1
0 1.2 1.1
0 1.2 1.2
0 1.2 1.3
0 1.2 1.4
0 1.2 1.5
0 1.2 1.6
0 1.2 1.7
0 1.2 1.8
0 1.2 1.9
0 1.2 2
0 1.3 0
0 1.3 0.1
0 1.3 0.2
0 1.3 0.3
0 1.3 0.4
0 1.3 0.5
0 1.3 0.6
0 1.3 0.7
0 1.3 0.8
0 1.3 0.9
0 1.3 1
0 1.3 1.1
0 1.3 1.2
0 1.3 1.3
0 1.3 1.4
0 1.3 1.5
0 1.3 1.6
0 1.3 1.7
0 1.3 1.8
0 1.3 1.9
0 1.3 2
0 1.4 0
0 1.4 0.1
0 1.4 0.2
0 1.4 0.3
0 1.4 0.4
0 1.4 0.5
0 1.4 0.6
0 1.4 0.7
0 1.4 0.8
0 1.4 0.9
0 1.4 1
0 1.4 1.1
0 1.4 1.2
0 1.4 1.3
0 1.4 1.4
0 1.4 1.5
0 1.4 1.6
0 1.4 1.7
0 1.4 1.8
0 1.4 1.9
0 1.4 2
0 1.5 0
0 1.5 0.1
0 1.5 0.2
0 1.5 0.3
0 1.5 0.4
0 1.5 0.5
0 1.5 0.6
0 1.5 0.7
0 1.5 0.8
0 1.5 0.9
0 1.5 1
0 1.5 1.1
0 1.5 1.2
0 1.5 1.3
0 1.5 1.4
0 1.5 1.5
0 1.5 1.6
0 1.5 1.7
0 1.5 1.8
0 1.5 1.9
0 1.5 2
0 1.6 0
0 1.6 0.1
0 1.6 0.2
0 1.6 0.3
0 1.6 0.4
0 1.6 0.5
0 1.6 0.6
0 1.6 0.7
0 1.6 0.8
0 1.6 0.9
0 1.6 1
0 1.6 1.1
0 1.6 1.2
0 1.6 1.3
0 1.6 1.4
0 1.6 1.5
0 1.6 1.6
0 1.6 1.7
0 1.6 1.8
0 1.6 1.9
0 1.6 2
0 1.7 0
0 1.7 0.1
0 1.7 0.2
0 1.7 0.3
0 1.7 0.4
0 1.7 0.5
0 1.7 0.6
0 1.7 0.7
0 1.7 0.8
0 1.7 0.9
0 1.7 1
0 1.7 1.1
0 1.7 1.2
0 1.7 1.3
0 1.7 1.4
0 1.7 1.5
0 1.7 1.6
0 1.7 1.7
0 1.7 1.8
0 1.7 1.9
0 1.7 2
0 1.8 0
0 1.8 0.1
0 1.8 0.2
0 1.8 0.3
0 1.8 0.4
0 1.8 0.5
0 1.8 0.6
0 1.8 0.7
0 1.8 0.8
0 1.8 0.9
0 1.8 1
0 1.8 1.1
0 1.8 1.2
0 1.8 1.3
0 1.8 1.4
0 1.8 1.5
0 1.8 1.6
0 1.8 1.7
0 1.8 1.8
0 1.8 1.9
0 1.8 2
0 1.9 0
0 1.9 0.1
0 1.9 0.2
0 1.9 0.3
0 1.9 0.4
0 1.9 0.5
0 1.9 0.6
0 1.9 0.7
0 1.9 0.8
0 1.9 0.9
0 1.9 1
0 1.9 1.1
0 1.9 1.2
0 1.9 1.3
0 1.9 1.4
0 1.9 1.5
0 1.9 1.6
0 1.9 1.7
0 1.9 1.8
0 1.9 1.9
0 1.9 2
0 2 0
0 2 0.1
0 2 0.2
0 2 0.3
0 2 0.4
0 2 0.5
0 2 0.6
0 2 0.7
0 2 0.8
0 2 0.9
0 2 1
0 2 1.1
0 2 1.2
0 2 1.3
0 2 1.4
0 2 1.5
0 2 1.6
0 2 1.7
0 2 1.8
0 2 1.9
0 2 2
0.1 0 0
0.1 0 0.1
0.1 0 0.2
0.1 0 0.3
0.1 0 0.4
0.1 0 0.5
0.1 0 0.6
0.1 0 0.7
0.1 0 0.8
0.1 0 0.9
0.1 0 1
0.1 0 1.1
0.1 0 1.2
0.1 0 1.3
0.1 0 1.4
0.1 0 1.5
0.1 0 1.6
0.1 0 1.7
0.1 0 1.8
0.1 0 1.9
0.1 0 2
0.1 0.1 0
0.1 0.1 0.1
0.1 0.1 0.2
0.1 0.1 0.3
0.1 0.1 0.4
0.1 0.1 0.5
0.1 0.1 0.6
0.1 0.1 0.7
0.1 0.1 0.8
0.1 0.1 0.9
0.1 0.1 1
0.1 0.1 1.1
0.1 0.1 1.2
0.1 0.1 1.3
0.1 0.1 1.4
0.1 0.1 1.5
0.1 0.1 1.6
0.1 0.1 1.7
0.1 0.1 1.8
0.1 0.1 1.9
0.1 0.1 2
0.1 0.2 0
0.1 0.2 0.1
0.1 0.2 0.2
0.1 0.2 0.3
0.1 0.2 0.4
0.1 0.2 0.5
0.1 0.2 0.6
0.1 0.2 0.7
0.1 0.2 0.8
0.1 0.2 0.9
0.1 0.2 1
0.1 0.2 1.1
0.1 0.2 1.2
0.1 0.2 1.3
0.1 0.2 1.4
0.1 0.2 1.5
0.1 0.2 1.6
0.1 0.2 1.7
0.1 0.2 1.8
0.1 0.2 1.9
0.1 0.2 2
0.1 0.3 0
0.1 0.3 0.1
0.1 0.3 0.2
0.1 0.3 0.3
0.1 0.3 0.4
0.1 0.3 0.5
0.1 0.3 0.6
0.1 0.3 0.7
0.1 0.3 0.8
0.1 0.3 0.9
0.1 0.3 1
0.1 0.3 1.1
0.1 0.3 1.2
0.1 0.3 1.3
0.1 0.3 1.4
0.1 0.3 1.5
0.1 0.3 1.6
0.1 0.3 1.7
0.1 0.3 1.8
0.1 0.3 1.9
0.1 0.3 2
0.1 0.4 0
0.1 0.4 0.1
0.1 0.4 0.2
0.1 0.4 0.3
0.1 0.4 0.4
0.1 0.4 0.5
0.1 0.4 0.6
0.1 0.4 0.7
0.1 0.4 0.8
0.1 0.4 0.9
0.1 0.4 1
0.1 0.4 1.1
0.1 0.4 1.2
0.1 0.4 1.3
0.1 0.4 1.4
0.1 0.4 1.5
0.1 0.4 1.6
0.1 0.4 1.7
0.1 0.4 1.8
0.1 0.4 1.9
0.1 0.4 2
0.1 0.5 0
0.1 0.5 0.1
0.1 0.5 0.2
0.1 0.5 0.3
0.1 0.5 0.4
0.1 0.5 0.5
0.1 0.5 0.6
0.1 0.5 0.7
0.1 0.5 0.8
0.1 0.5 0.9
0.1 0.5 1
0.1 0.5 1.1
0.1 0.5 1.2
0.1 0.5 1.3
0.1 0.5 1.4
0.1 0.5 1.5
0.1 0.5 1.6
0.1 0.5 1.7
0.1 0.5 1.8
0.1 0.5 1.9
0.1 0.5 2
0.1 0.6 0
0.1 0.6 0.1
0.1 0.6 0.2
0.1 0.6 0.3
0.1 0.6 0.4
0.1 0.6 0.5
0.1 0.6 0.6
0.1 0.6 0.7
0.1 0.6 0.8
0.1 0.6 0.9
0.1 0.6 1
0.1 0.6 1.1
0.1 0.6 1.2
0.1 0.6 1.3
0.1 0.6 1.4
0.1 0.6 1.5
0.1 0.6 1.6
0.1 0.6 1.7
0.1 0.6 1.8
0.1 0.6 1.9
0.1 0.6 2
0.1 0.7 0
0.1 0.7 0.1
0.1 0.7 0.2
0.1 0.7 0.3
0.1 0.7 0.4
0.1 0.7 0.5
0.1 0.7 0.6
0.1 0.7 0.7
0.1 0.7 0.8
0.1 0.7 0.9
0.1 0.7 1
0.1 0.7 1.1
0.1 0.7 1.2
0.1 0.7 1.3
0.1 0.7 1.4
0.1 0.7 1.5
0.1 0.7 1.6
0.1 0.7 1.7
0.1 0.7 1.8
0.1 0.7 1.9
0.1 0.7 2
0.1 0.8 0
0.1 0.8 0.1
0.1 0.8 0.2
0.1 0.8 0.3
0.1 0.8 0.4
0.1 0.8 0.5
0.1 0.8 0.6
0.1 0.8 0.7
0.1 0.8 0.8
0.1 0.8 0.9
0.1 0.8 1
0.1 0.8 1.1
0.1 0.8 1.2
0.1 0.8 1.3
0.1 0.8 1.4
0.1 0.8 1.5
0.1 0.8 1.6
0.1 0.8 1.7
0.1 0.8 1.8
0.1 0.8 1.9
0.1 0.8 2
0.1 0.9 0
0.1 0.9 0.1
0.1 0.9 0.2
0.1 0.9 0.3
0.1 0.9 0.4
0.1 0.9 0.5
0.1 0.9 0.6
0.1 0.9 0.7
0.1 0.9 0.8
0.1 0.9 0.9
0.1 0.9 1
0.1 0.9 1.1
0.1 0.9 1.2
0.1 0.9 1.3
0.1 0.9 1.4
0.1 0.9 1.5
0.1 0.9 1.6
0.1 0.9 1.7
0.1 0.9 1.8
0.1 0.9 1.9
0.1 0.9 2
0.1 1 0
0.1 1 0.1
0.1 1 0.2
0.1 1 0.3
0.1 1 0.4
0.1 1 0.5
0.1 1 0.6
0.1 1 0.7
0.1 1 0.8
0.1 1 0.9
0.1 1 1
0.1 1 1.1
0.1 1 1.2
0.1 1 1.3
0.1 1 1.4
0.1 1 1.5
0.1 1 1.6
0.1 1 1.7
0.1 1 1.8
0.1 1 1.9
0.1 1 2
0.1 1.1 0
0.1 1.1 0.1
0.1 1.1 0.2
0.1 1.1 0.3
0.1 1.1 0.4
0.1 1.1 0.5
0.1 1.1 0.6
0.1 1.1 0.7
0.1 1.1 0.8
0.1 1.1 0.9
0.1 1.1 1
0.1 1.1 1.1
0.1 1.1 1.2
0.1 1.1 1.3
0.1 1.1 1.4
0.1 1.1 1.5
0.1 1.1 1.6
0.1 1.1 1.7
0.1 1.1 1.8
0.1 1.1 1.9
0.1 1.1 2
0.1 1.2 0
0.1 1.2 0.1
0.1 1.2 0.2
0.1 1.2 0.3
0.1 1.2 0.4
0.1 1.2 0.5
0.1 1.2 0.6
0.1 1.2 0.7
0.1 1.2 0.8
0.1 1.2 0.9
0.1 1.2 1
0.1 1.2 1.1
0.1 1.2 1.2
0.1 1.2 1.3
0.1 1.2 1.4
0.1 1.2 1.5
0.1 1.2 1.6
0.1 1.2 1.7
0.1 1.2 1.8
0.1 1.2 1.9
0.1 1.2 2
0.1 1.3 0
0.1 1.3 0.1
0.1 1.3 0.2
0.1 1.3 0.3
0.1 1.3 0.4
0.1 1.3 0.5
0.1 1.3 0.6
0.1 1.3 0.7
0.1 1.3 0.8
0.1 1.3 0.9
0.1 1.3 1
0.1 1.3 1.1
0.1 1.3 1.2
0.1 1.3 1.3
0.1 1.3 1.4
0.1 1.3 1.5
0.1 1.3 1.6
0.1 1.3 1.7
0.1 1.3 1.8
0.1 1.3 1.9
0.1 1.3 2
0.1 1.4 0
0.1 1.4 0.1
0.1 1.4 0.2
0.1 1.4 0.3
0.1 1.4 0.4
0.1 1.4 0.5
0.1 1.4 0.6
0.1 1.4 0.7
0.1 1.4 0.8
0.1 1.4 0.9
0.1 1.4 1
0.1 1.4 1.1
0.1 1.4 1.2
0.1 1.4 1.3
0.1 1.4 1.4
0.1 1.4 1.5
0.1 1.4 1.6
0.1 1.4 1.7
0.1 1.4 1.8
0.1 1.4 1.9
0.1 1.4 2
0.1 1.5 0
0.1 1.5 0.1
0.1 1.5 0.2
0.1 1.5 0.3
0.1 1.5 0.4
0.1 1.5 0.5
0.1 1.5 0.6
0.1 1.5 0.7
0.1 1.5 0.8
0.1 1.5 0.9
0.1 1.5 1
0.1 1.5 1.1
0.1 1.5 1.2
0.1 1.5 1.3
0.1 1.5 1.4
0.1 1.5 1.5
0.1 1.5 1.6
0.1 1.5 1.7
0.1 1.5 1.8
0.1 1.5 1.9
0.1 1.5 2
0.1 1.6 0
0.1 1.6 0.1
0.1 1.6 0.2
0.1 1.6 0.3
0.1 1.6 0.4
0.1 1.6 0.5
0.1 1.6 0.6
0.1 1.6 0.7
0.1 1.6 0.8
0.1 1.6 0.9
0.1 1.6 1
0.1 1.6 1.1
0.1 1.6 1.2
0.1 1.6 1.3
0.1 1.6 1.4
0.1 1.6 1.5
0.1 1.6 1.6
0.1 1.6 1.7
0.1 1.6 1.8
0.1 1.6 1.9
0.1 1.6 2
0.1 1.7 0
0.1 1.7 0.1
0.1 1.7 0.2
0.1 1.7 0.3
0.1 1.7 0.4
0.1 1.7 0.5
0.1 1.7 0.6
0.1 1.7 0.7
0.1 1.7 0.8
0.1 1.7 0.9
0.1 1.7 1
0.1 1.7 1.1
0.1 1.7 1.2
0.1 1.7 1.3
0.1 1.7 1.4
0.1 1.7 1.5
0.1 1.7 1.6
0.1 1.7 1.7
0.1 1.7 1.8
0.1 1.7 1.9
0.1 1.7 2
0.1 1.8 0
0.1 1.8 0.1
0.1 1.8 0.2
0.1 1.8 0.3
0.1 1.8 0.4
0.1 1.8 0.5
0.1 1.8 0.6
0.1 1.8 0.7
0.1 1.8 0.8
0.1 1.8 0.9
0.1 1.8 1
0.1 1.8 1.1
0.1 1.8 1.2
0.1 1.8 1.3
0.1 1.8 1.4
0.1 1.8 1.5
0.1 1.8 1.6
0.1 1.8 1.7
0.1 1.8 1.8
0.1 1.8 1.9
0.1 1.8 2
0.1 1.9 0
0.1 1.9 0.1
0.1 1.9 0.2
0.1 1.9 0.3
0.1 1.9 0.4
0.1 1.9 0.5
0.1 1.9 0.6
0.1 1.9 0.7
0.1 1.9 0.8
0.1 1.9 0.9
0.1 1.9 1
0.1 1.9 1.1
0.1 1.9 1.2
0.1 1.9 1.3
0.1 1.9 1.4
0.1 1.9 1.5
0.1 1.9 1.6
0.1 1.9 1.7
0.1 1.9 1.8
0.1 1.9 1.9
0.1 1.9 2
0.1 2 0
0.1 2 0.1
0.1 2 0.2
0.1 2 0.3
0.1 2 0.4
0.1 2 0.5
0.1 2 0.6
0.1 2 0.7
0.1 2 0.8
0.1 2 0.9
0.1 2 1
0.1 2 1.1
0.1 2 1.2
0.1 2 1.3
0.1 2 1.4
0.1 2 1.5
0.1 2 1.6
0.1 2 1.7
0.1 2 1.8
0.1 2 1.9
0.1 2 2
0.2 0 0
0.2 0 0.1
0.2 0 0.2
0.2 0 0.3
0.2 0 0.4
0.2 0 0.5
0.2 0 0.6
0.2 0 0.7
0.2 0 0.8
0.2 0 0.9
0.2 0 1
0.2 0 1.1
0.2 0 1.2
0.2 0 1.3
0.2 0 1.4
0.2 0 1.5
0.2 0 1.6
0.2 0 1.7
0.2 0 1.8
0.2 0 1.9
0.2 0 2
0.2 0.1 0
0.2 0.1 0.1
0.2 0.1 0.2
0.2 0.1 0.3
0.2 0.1 0.4
0.2 0.1 0.5
0.2 0.1 0.6
0.2 0.1 0.7
0.2 0.1 0.8
0.2 0.1 0.9
0.2 0.1 1
0.2 0.1 1.1
0.2 0.1 1.2
0.2 0.1 1.3
0.2 0.1 1.4
0.2 0.1 1.5
0.2 0.1 1.6
0.2 0.1 1.7
0.2 0.1 1.8
0.2 0.1 1.9
0.2 0.1 2
0.2 0.2 0
0.2 0.2 0.1
0.2 0.2 0.2
0.2 0.2 0.3
0.2 0.2 0.4
0.2 0.2 0.5
0.2 0.2 0.6
0.2 0.2 0.7
0.2 0.2 0.8
0.2 0.2 0.9
0.2 0.2 1
0.2 0.2 1.1
0.2 0.2 1.2
0.2 0.2 1.3
0.2 0.2 1.4
0.2 0.2 1.5
0.2 0.2 1.6
0.2 0.2 1.7
0.2 0.2 1.8
0.2 0.2 1.9
[...]
CELL_DATA 8000
SCALARS Phi_sigma_(3D) float 1
LOOKUP_TABLE default
0.19553
0.194297
0.192943
0.191956
0.191191
0.190636
0.190269
0.190032
0.18994
0.189894
0.189897
0.189957
0.190138
0.190491
0.190974
0.191555
0.192303
0.193311
0.194646
0.195854
0.196261
0.194459
0.192854
0.191938
0.191178
0.190628
0.190289
0.190048
0.190007
0.189958
0.189955
0.189982
0.190139
0.190516
0.191015
0.191559
0.19226
0.193241
0.19481
0.196565
0.200391
0.198637
0.197089
0.196244
0.195561
0.195098
0.194802
0.194557
0.19451
0.194477
0.194518
0.194547
0.194671
0.19501
0.195489
0.196029
0.196676
0.197553
0.199047
0.200834
0.208298
0.207328
0.206267
0.205531
0.204991
0.204643
0.204392
0.204182
0.204096
0.204089
0.204171
0.204243
0.204368
0.204633
0.205037
0.205553
0.206131
0.206849
0.20788
0.208949
0.217271
0.216783
0.216159
0.215637
0.215234
0.21495
0.214747
0.214603
0.21454
0.214545
0.214611
0.214707
0.214855
0.215091
0.215421
0.21583
0.216299
0.216847
0.217484
0.218018
0.226003
0.225756
0.225402
0.225063
0.224782
0.224571
0.224422
0.224328
0.224292
0.224309
0.224374
0.224478
0.224627
0.224836
0.225104
0.225423
0.225782
0.226171
0.226558
0.226833
0.234161
0.234032
0.233832
0.233623
0.233439
0.233296
0.233197
0.233142
0.233131
0.233162
0.233231
0.233335
0.233476
0.233657
0.233875
0.234124
0.234393
0.234664
0.234906
0.235058
0.241707
0.241638
0.241526
0.241403
0.241291
0.241204
0.241148
0.241125
0.241135
0.241178
0.241252
0.241353
0.241483
0.241639
0.241819
0.242015
0.242216
0.242407
0.242565
0.242658
0.248677
0.248641
0.248581
0.248513
0.248453
0.248409
0.248387
0.24839
0.248419
0.248473
0.24855
0.248649
0.248768
0.248904
0.249053
0.249209
0.249363
0.249503
0.249612
0.249673
0.255115
0.255097
0.255069
0.255038
0.255013
0.255001
0.255006
0.25503
0.255073
0.255136
0.255216
0.255313
0.255423
0.255543
0.25567
0.255798
0.255919
0.256024
0.256104
0.256147
0.261046
0.26104
0.261032
0.261025
0.261025
0.261037
0.261062
0.261102
0.261158
0.261228
0.261311
0.261405
0.261508
0.261617
0.261728
0.261835
0.261934
0.262017
0.262078
0.26211
0.266482
0.266483
0.266488
0.266497
0.266515
0.266544
0.266584
0.266637
0.266702
0.266778
0.266863
0.266956
0.267054
0.267155
0.267253
0.267347
0.26743
0.267499
0.267548
0.267574
0.271417
0.271423
0.271436
0.271456
0.271487
0.271528
0.271579
0.271642
0.271714
0.271795
0.271882
0.271975
0.272069
0.272163
0.272254
0.272338
0.272411
0.27247
0.272512
0.272534
0.275833
0.275842
0.275861
0.27589
0.275929
0.275979
0.276039
0.276109
0.276187
0.276271
0.276361
0.276453
0.276545
0.276635
0.276719
0.276796
0.276863
0.276915
0.276952
0.276971
0.279705
0.279717
0.279739
0.279774
0.279819
0.279876
0.279942
0.280018
0.2801
0.280188
0.280279
0.28037
0.280461
0.280548
0.280629
0.280701
0.280762
0.280811
0.280845
0.280862
0.283003
0.283015
0.283041
0.283079
0.28313
0.283191
0.283262
0.283342
0.283427
0.283517
0.283609
0.283701
0.283791
0.283875
0.283953
0.284023
0.284081
0.284127
0.284158
0.284174
0.285693
0.285707
0.285734
0.285775
0.285829
0.285894
0.285968
0.286051
0.286139
0.286231
0.286324
0.286416
0.286504
0.286588
0.286664
0.28673
0.286787
0.28683
0.28686
0.286876
0.287745
0.287759
0.287788
0.287831
0.287887
0.287954
0.288031
0.288116
0.288206
0.288299
0.288392
0.288484
0.288572
0.288655
0.288729
0.288795
0.288849
0.288892
0.288921
0.288936
0.289132
0.289146
0.289176
0.28922
0.289277
0.289346
0.289424
0.28951
0.289601
0.289695
0.289789
0.289881
0.289968
0.29005
0.290124
0.290188
0.290242
0.290284
0.290312
0.290327
0.289832
0.289847
0.289877
0.289921
0.289979
0.290048
0.290128
0.290214
0.290305
0.290399
0.290494
0.290585
0.290673
0.290754
0.290828
0.290892
0.290945
0.290986
0.291014
0.291029
0.196393
0.194617
0.193027
0.192113
0.191359
0.190816
0.190479
0.190235
0.190189
0.190142
0.190145
0.190173
0.190328
0.1907
0.191199
0.191747
0.192448
0.193421
0.194973
0.196713
0.195041
0.190628
0.18822
0.187836
0.18695
0.186318
0.186076
0.185732
0.185955
0.185833
0.185795
0.185686
0.185762
0.186297
0.186914
0.187308
0.187898
0.188645
0.190922
0.195134
0.198778
0.194333
0.191857
0.191512
0.190701
0.190261
0.190082
0.189646
0.189815
0.189712
0.189843
0.189721
0.189694
0.190143
0.19075
0.191268
0.191806
0.192347
0.194557
0.19917
0.208648
0.207102
0.205676
0.204964
0.204432
0.204227
0.204025
0.203702
0.203596
0.203593
0.203827
0.203855
0.203867
0.204089
0.204522
0.205164
0.205703
0.206262
0.207496
0.20948
0.218456
0.217854
0.217165
0.216653
0.216264
0.216007
0.215819
0.21567
0.215612
0.215621
0.215704
0.215792
0.215923
0.216153
0.216482
0.216893
0.217342
0.217865
0.218552
0.219235
0.227289
0.227024
0.226664
0.226336
0.226067
0.225867
0.225727
0.225639
0.225609
0.225629
0.225696
0.225798
0.225944
0.22615
0.226412
0.226723
0.227069
0.227448
0.22784
0.228135
0.235367
0.235238
0.235042
0.234842
0.234667
0.234532
0.23444
0.234391
0.234384
0.234418
0.234488
0.234592
0.234731
0.23491
0.235123
0.235366
0.235626
0.235889
0.236127
0.23628
0.242814
0.242747
0.24264
0.242523
0.242417
0.242336
0.242286
0.242267
0.242282
0.242327
0.242401
0.242504
0.242632
0.242787
0.242963
0.243154
0.24335
0.243536
0.24369
0.243781
0.249707
0.249673
0.249616
0.249553
0.249497
0.249458
0.24944
0.249447
0.249479
0.249535
0.249613
0.249713
0.249831
0.249966
0.250114
0.250267
0.250417
0.250553
0.25066
0.250719
0.256095
0.256079
0.256053
0.256026
0.256005
0.255996
0.256005
0.256032
0.256078
0.256142
0.256224
0.256321
0.256432
0.256552
0.256677
0.256803
0.256922
0.257026
0.257103
0.257145
0.262003
0.261998
0.261991
0.261987
0.26199
0.262005
0.262033
0.262076
0.262134
0.262206
0.262291
0.262386
0.26249
0.262598
0.262708
0.262815
0.262912
0.262994
0.263054
0.263086
0.267434
0.267436
0.267442
0.267454
0.267474
0.267505
0.267548
0.267604
0.267671
0.267749
0.267836
0.26793
0.268029
0.26813
0.268229
0.268322
0.268405
0.268473
0.268521
0.268547
0.272378
0.272385
0.272399
0.272422
0.272455
0.272498
0.272552
0.272617
0.272692
0.272775
0.272864
0.272958
0.273054
0.273148
0.273239
0.273323
0.273396
0.273455
0.273496
0.273518
0.276814
0.276824
0.276844
0.276874
0.276916
0.276968
0.277031
0.277104
0.277184
0.277271
0.277362
0.277456
0.277549
0.27764
0.277725
0.277802
0.277868
0.277921
0.277958
0.277977
0.280711
0.280723
0.280747
0.280783
0.280831
0.28089
0.28096
0.281038
0.281123
0.281213
0.281306
0.281399
0.281491
0.281579
0.28166
0.281733
0.281794
0.281843
0.281877
0.281894
0.284035
0.284049
0.284076
0.284116
0.284169
0.284233
0.284307
0.284389
0.284478
0.28457
0.284665
0.284758
0.284849
0.284935
0.285013
0.285083
0.285141
0.285187
0.285218
0.285235
0.286751
0.286766
0.286795
0.286838
0.286894
0.286962
0.287039
0.287125
0.287216
0.28731
0.287405
0.287499
0.287589
0.287674
0.28775
0.287818
0.287874
0.287918
0.287948
0.287963
0.288825
0.28884
0.288871
0.288916
0.288974
0.289044
0.289124
0.289212
0.289305
0.289401
0.289497
0.28959
0.28968
0.289764
0.289839
0.289905
0.289959
0.290002
0.290031
0.290046
0.290228
0.290243
0.290274
0.290321
0.29038
0.290452
0.290534
0.290623
0.290717
0.290813
0.29091
0.291004
0.291093
0.291176
0.29125
0.291315
0.291369
0.291411
0.291439
0.291454
0.290936
0.290952
0.290984
0.29103
0.291091
0.291163
0.291246
0.291335
0.29143
0.291527
0.291623
0.291717
0.291806
0.291889
0.291963
0.292027
0.292081
0.292122
0.29215
0.292165
0.200761
0.199125
0.197623
0.19677
0.196102
0.19567
0.19538
0.19512
0.195052
0.195025
0.195094
0.195129
0.195241
0.19556
0.196035
0.196602
0.19725
0.198101
0.19954
0.201266
0.199145
0.19515
0.192706
0.192226
0.191462
0.19117
0.191
0.190494
0.190553
0.190478
0.190751
0.190645
0.190551
0.190907
0.191501
0.19218
0.192734
0.193203
0.195282
0.199786
0.203105
0.198985
0.196675
0.196357
0.195622
0.195217
0.195054
0.194664
0.194829
0.194744
0.194862
0.194755
0.19474
0.195169
0.195739
0.196213
0.196704
0.197215
0.199293
0.203562
0.212598
0.210744
0.209562
0.209134
0.208591
0.208086
0.207863
0.207768
0.207882
0.207846
0.207733
0.207758
0.207957
0.208356
0.208761
0.208996
0.209463
0.210187
0.21146
0.212979
0.221705
0.221082
0.220467
0.22004
0.219677
0.21939
0.219213
0.219118
0.219109
0.219116
0.219144
0.219227
0.21939
0.219645
0.219951
0.220274
0.220679
0.221194
0.221847
0.222435
0.230074
0.22982
0.229496
0.229207
0.228962
0.228774
0.228648
0.22858
0.228567
0.228591
0.228651
0.228752
0.228902
0.229106
0.229353
0.229634
0.229953
0.230307
0.230671
0.230937
0.237808
0.23769
0.237514
0.237336
0.23718
0.237059
0.23698
0.236942
0.236945
0.236983
0.237054
0.237157
0.237296
0.23747
0.237674
0.2379
0.238143
0.238389
0.238609
0.238749
0.245011
0.244951
0.244856
0.244753
0.244661
0.244591
0.244551
0.244541
0.244562
0.244611
0.244688
0.244791
0.244918
0.245069
0.245239
0.245421
0.245605
0.24578
0.245924
0.246008
0.251743
0.251713
0.251664
0.25161
0.251564
0.251533
0.251524
0.251538
0.251575
0.251635
0.251716
0.251816
0.251934
0.252067
0.25221
0.252358
0.252502
0.252631
0.252731
0.252787
0.258037
0.258024
0.258003
0.257982
0.257968
0.257966
0.257981
0.258014
0.258065
0.258134
0.258219
0.258317
0.258427
0.258546
0.25867
0.258792
0.258907
0.259006
0.259081
0.259121
0.263901
0.263898
0.263895
0.263896
0.263905
0.263925
0.263959
0.264008
0.26407
0.264146
0.264234
0.264331
0.264436
0.264544
0.264653
0.264758
0.264853
0.264933
0.264991
0.265021
0.269328
0.269331
0.26934
0.269356
0.269382
0.269418
0.269467
0.269527
0.269599
0.269681
0.269772
0.269868
0.269968
0.27007
0.270168
0.27026
0.270342
0.270409
0.270456
0.270481
0.274296
0.274304
0.274321
0.274348
0.274385
0.274433
0.274493
0.274563
0.274643
0.27473
0.274823
0.274919
0.275016
0.275112
0.275203
0.275287
0.275359
0.275417
0.275458
0.275479
0.278774
0.278785
0.278808
0.278842
0.278888
0.278946
0.279014
0.279092
0.279178
0.279269
0.279364
0.27946
0.279556
0.279648
0.279734
0.279811
0.279877
0.27993
0.279966
0.279985
0.282725
0.282738
0.282765
0.282805
0.282858
0.282922
0.282997
0.283081
0.283171
0.283266
0.283363
0.283459
0.283553
0.283643
0.283725
0.283798
0.28386
0.283908
0.283942
0.283959
0.286106
0.286121
0.286151
0.286195
0.286253
0.286322
0.286402
0.28649
0.286584
0.286682
0.28678
0.286877
0.286971
0.287058
0.287138
0.287208
0.287267
0.287312
0.287344
0.28736
0.288876
0.288892
0.288924
0.288971
0.289033
0.289106
0.28919
0.289282
0.289379
0.289478
0.289578
0.289675
0.289768
0.289854
0.289932
0.29
0.290056
0.2901
0.29013
0.290145
0.290996
0.291013
0.291046
0.291096
0.291159
0.291236
0.291322
0.291416
0.291515
0.291616
0.291717
0.291814
0.291907
0.291992
0.292069
0.292135
0.29219
0.292232
0.292261
0.292276
0.292432
0.292449
0.292483
0.292534
0.2926
0.292678
0.292766
0.292861
0.292961
0.293063
0.293164
0.293262
0.293354
0.293439
0.293515
0.29358
0.293634
0.293676
0.293704
0.293719
0.293158
0.293175
0.29321
0.293261
0.293328
0.293406
0.293495
0.293592
0.293692
0.293795
0.293896
0.293994
0.294086
0.29417
0.294245
0.29431
0.294364
0.294405
0.294433
0.294448
0.208802
0.207898
0.206909
0.206203
0.205668
0.205297
0.205042
0.204855
0.204782
0.204772
0.204826
0.204901
0.205047
0.205324
0.205719
0.206201
0.206771
0.207494
0.208477
0.209422
0.209318
0.207886
0.20664
0.205983
0.205449
0.20511
0.204883
0.204665
0.204623
0.204613
0.204695
0.204738
0.204842
0.205127
0.205544
0.20603
0.206563
0.207235
0.208432
0.209962
0.212401
0.210541
0.209223
0.208734
0.20821
0.207873
0.207683
0.207467
0.207495
0.207472
0.207543
0.207559
0.207652
0.207965
0.208382
0.208803
0.209276
0.209854
0.211106
0.21303
0.219315
0.218428
0.217635
0.217165
0.216759
0.216445
0.216259
0.21615
0.216153
0.216154
0.216176
0.216244
0.216402
0.216678
0.217008
0.217344
0.217771
0.218338
0.219158
0.220003
0.226819
0.226423
0.225973
0.225617
0.225322
0.225095
0.224949
0.224871
0.22486
0.224878
0.224927
0.225021
0.225177
0.225402
0.225673
0.225974
0.226331
0.226758
0.227245
0.22764
0.234238
0.234052
0.2338
0.233564
0.233362
0.233207
0.233106
0.233056
0.233053
0.233085
0.233151
0.233254
0.2334
0.23359
0.233816
0.23407
0.234352
0.234656
0.234951
0.235154
0.241385
0.241292
0.241151
0.241005
0.240877
0.24078
0.240719
0.240696
0.240709
0.240754
0.240828
0.240933
0.241068
0.241234
0.241423
0.241631
0.241849
0.242065
0.242253
0.242369
0.248216
0.248168
0.248091
0.248008
0.247935
0.247883
0.247857
0.247858
0.247888
0.247944
0.248024
0.248128
0.248253
0.248399
0.248559
0.248728
0.248897
0.249055
0.249182
0.249256
0.254721
0.254697
0.254659
0.254619
0.254586
0.254568
0.25457
0.254593
0.254638
0.254704
0.254789
0.254891
0.255008
0.255137
0.255275
0.255414
0.255548
0.255667
0.255759
0.255809
0.26089
0.260881
0.260867
0.260855
0.260852
0.26086
0.260885
0.260926
0.260984
0.261059
0.261147
0.261248
0.261358
0.261476
0.261596
0.261714
0.261823
0.261916
0.261985
0.262022
0.266705
0.266705
0.266708
0.266716
0.266733
0.266762
0.266804
0.26686
0.26693
0.267011
0.267103
0.267203
0.267309
0.267417
0.267525
0.267627
0.267719
0.267795
0.26785
0.267879
0.272139
0.272145
0.272159
0.272181
0.272213
0.272258
0.272314
0.272382
0.272461
0.272549
0.272644
0.272744
0.272846
0.272948
0.273046
0.273137
0.273217
0.273281
0.273327
0.273351
0.277155
0.277165
0.277186
0.277218
0.277263
0.277319
0.277386
0.277464
0.27755
0.277644
0.277742
0.277842
0.277942
0.278039
0.27813
0.278213
0.278285
0.278342
0.278382
0.278403
0.281707
0.28172
0.281747
0.281787
0.28184
0.281906
0.281982
0.282068
0.28216
0.282258
0.282359
0.28246
0.282558
0.282652
0.282739
0.282816
0.282882
0.282933
0.282969
0.282988
0.285747
0.285762
0.285793
0.285839
0.285899
0.285972
0.286055
0.286147
0.286245
0.286347
0.28645
0.286551
0.286649
0.28674
0.286824
0.286897
0.286959
0.287007
0.28704
0.287057
0.289221
0.289239
0.289273
0.289323
0.289389
0.289467
0.289556
0.289653
0.289755
0.28986
0.289965
0.290067
0.290164
0.290254
0.290335
0.290405
0.290464
0.290509
0.29054
0.290556
0.29208
0.292098
0.292135
0.292189
0.292258
0.292341
0.292434
0.292535
0.29264
0.292748
0.292854
0.292956
0.293053
0.293142
0.293221
0.293289
0.293346
0.293389
0.293418
0.293434
0.294274
0.294293
0.294332
0.294388
0.29446
0.294546
0.294642
0.294746
0.294854
0.294963
0.29507
0.295173
0.295269
0.295357
0.295435
0.295502
0.295557
0.295599
0.295627
0.295642
0.295764
0.295783
0.295823
0.295881
0.295955
0.296042
0.296141
0.296246
0.296356
0.296466
0.296574
0.296677
0.296773
0.29686
0.296937
0.297003
0.297057
0.297098
0.297126
0.29714
0.296518
0.296538
0.296578
0.296636
0.296711
0.2968
0.296899
0.297006
0.297116
0.297226
0.297335
0.297438
0.297534
0.297621
0.297697
0.297763
0.297816
0.297856
0.297884
0.297898
0.217672
0.217213
0.216627
0.216126
0.215728
0.215436
0.215232
0.215099
0.215043
0.215046
0.215101
0.215197
0.215353
0.215595
0.215919
0.216311
0.21677
0.21731
0.217918
0.218401
0.218822
0.218254
0.217609
0.217119
0.216733
0.216456
0.216265
0.216134
0.216088
0.216095
0.216154
0.216243
0.21639
0.216631
0.216953
0.217336
0.217778
0.218308
0.218968
0.219567
0.221791
0.221172
0.22054
0.220106
0.21975
0.219494
0.219325
0.21921
0.219185
0.219195
0.219253
0.219337
0.219481
0.219719
0.220028
0.220379
0.220784
0.221273
0.221923
0.222566
0.226859
0.226464
0.226011
0.225653
0.225361
0.22514
0.224996
0.224915
0.2249
0.22492
0.224974
0.225069
0.225221
0.225442
0.225713
0.22602
0.226376
0.226798
0.227286
0.22769
0.232926
0.232706
0.232417
0.232155
0.231935
0.231768
0.231659
0.231604
0.231599
0.231629
0.231693
0.231795
0.231943
0.23214
0.232375
0.232639
0.232937
0.233266
0.233596
0.233832
0.239361
0.239241
0.239066
0.238891
0.23874
0.238625
0.238552
0.238522
0.238531
0.238573
0.238646
0.238751
0.238891
0.239065
0.239266
0.23949
0.239729
0.239974
0.240195
0.240337
0.245859
0.245794
0.245693
0.245585
0.245491
0.245421
0.245382
0.245376
0.245401
0.245454
0.245533
0.245639
0.24577
0.245924
0.246097
0.246283
0.246473
0.246655
0.246807
0.246897
0.252277
0.252243
0.252188
0.252129
0.252079
0.252046
0.252037
0.252053
0.252093
0.252157
0.252241
0.252346
0.252469
0.252607
0.252757
0.252911
0.253063
0.2532
0.253309
0.25337
0.258535
0.258519
0.258495
0.25847
0.258453
0.258451
0.258467
0.258502
0.258556
0.258629
0.258718
0.258822
0.258938
0.259064
0.259194
0.259325
0.259448
0.259555
0.259636
0.25968
0.26458
0.264576
0.264571
0.26457
0.264579
0.2646
0.264637
0.264688
0.264756
0.264837
0.26493
0.265034
0.265145
0.26526
0.265376
0.265488
0.265591
0.265677
0.26574
0.265774
0.270362
0.270365
0.270374
0.270392
0.270419
0.270459
0.270512
0.270578
0.270656
0.270745
0.270842
0.270946
0.271053
0.271161
0.271266
0.271365
0.271453
0.271525
0.271577
0.271604
0.27583
0.275839
0.275858
0.275889
0.275931
0.275985
0.276052
0.27613
0.276217
0.276313
0.276414
0.276518
0.276623
0.276726
0.276823
0.276912
0.27699
0.277052
0.277096
0.277119
0.28093
0.280943
0.280969
0.28101
0.281063
0.28113
0.281208
0.281296
0.281391
0.281493
0.281597
0.281702
0.281806
0.281904
0.281996
0.282078
0.282148
0.282204
0.282243
0.282263
0.2856
0.285616
0.285648
0.285696
0.285759
0.285835
0.285922
0.286019
0.286122
0.286228
0.286336
0.286442
0.286544
0.28664
0.286728
0.286805
0.28687
0.28692
0.286955
0.286973
0.289775
0.289793
0.28983
0.289885
0.289955
0.290039
0.290134
0.290237
0.290346
0.290457
0.290568
0.290675
0.290777
0.290871
0.290955
0.291029
0.291089
0.291136
0.291168
0.291185
0.293389
0.29341
0.29345
0.29351
0.293586
0.293676
0.293778
0.293887
0.294001
0.294115
0.294228
0.294337
0.294438
0.294531
0.294613
0.294683
0.294741
0.294785
0.294815
0.294831
0.296378
0.2964
0.296443
0.296507
0.296588
0.296683
0.296789
0.296903
0.297021
0.297139
0.297253
0.297363
0.297464
0.297555
0.297636
0.297704
0.297759
0.297801
0.29783
0.297844
0.298682
0.298705
0.29875
0.298816
0.298901
0.299
0.29911
0.299227
0.299348
0.299468
0.299584
0.299694
0.299795
0.299886
0.299964
0.300031
0.300085
0.300125
0.300152
0.300166
0.300251
0.300274
0.300321
0.300389
0.300476
0.300577
0.30069
0.300809
0.300931
0.301053
0.30117
0.30128
0.301381
0.301471
0.301549
0.301614
0.301667
0.301706
0.301733
0.301747
0.301046
0.30107
0.301117
0.301186
0.301274
0.301377
0.301491
0.301611
0.301734
0.301856
0.301974
0.302084
0.302185
0.302275
0.302352
0.302417
0.302469
0.302508
0.302534
0.302547
0.226303
0.226068
0.225731
0.225404
0.225128
0.224917
0.224768
0.224678
0.224646
0.224662
0.224723
0.224827
0.224979
0.225188
0.225452
0.225763
0.226114
0.226495
0.226867
0.227122
0.227544
0.22729
0.226946
0.226628
0.226362
0.226161
0.226022
0.225938
0.22591
0.22593
0.225993
0.226095
0.226244
0.22645
0.226709
0.227012
0.227353
0.227726
0.228105
0.228381
0.230213
0.229963
0.22964
0.229352
0.229112
0.228931
0.228808
0.228737
0.228721
0.228747
0.228811
0.228912
0.229058
0.229258
0.229505
0.229789
0.230105
0.230453
0.230813
0.231084
0.234314
0.234129
0.233877
0.233641
0.233442
0.23329
0.23319
0.233139
0.233135
0.233168
0.233235
0.233338
0.233483
0.233671
0.233897
0.234152
0.234433
0.234734
0.235028
0.235233
0.239393
0.239273
0.239098
0.238924
0.238773
0.238659
0.238587
0.238556
0.238565
0.238607
0.23868
0.238786
0.238925
0.239098
0.2393
0.239523
0.239762
0.240006
0.240227
0.240369
0.245037
0.244965
0.244853
0.244736
0.244633
0.244557
0.244514
0.244505
0.244528
0.24458
0.244659
0.244765
0.244898
0.245056
0.245234
0.245425
0.245623
0.245815
0.245977
0.246074
0.250971
0.250929
0.250863
0.250792
0.250732
0.250691
0.250676
0.250687
0.250725
0.250787
0.250871
0.250978
0.251104
0.251247
0.251403
0.251567
0.251729
0.251878
0.251998
0.252066
0.257017
0.256996
0.256962
0.256927
0.256901
0.25689
0.2569
0.256931
0.256982
0.257054
0.257144
0.25725
0.25737
0.257501
0.257639
0.257779
0.257912
0.25803
0.258121
0.25817
0.26306
0.263052
0.263041
0.263033
0.263034
0.263049
0.26308
0.263129
0.263194
0.263275
0.26337
0.263476
0.263591
0.263712
0.263836
0.263956
0.264068
0.264163
0.264233
0.264271
0.269013
0.269015
0.26902
0.269032
0.269054
0.26909
0.26914
0.269204
0.269282
0.269371
0.26947
0.269577
0.269689
0.269802
0.269914
0.27002
0.270116
0.270195
0.270252
0.270282
0.274802
0.27481
0.274826
0.274854
0.274894
0.274947
0.275013
0.27509
0.275179
0.275276
0.27538
0.275488
0.275597
0.275705
0.275808
0.275904
0.275987
0.276055
0.276103
0.276128
0.280352
0.280365
0.280391
0.280431
0.280485
0.280552
0.280632
0.280722
0.28082
0.280925
0.281033
0.281143
0.28125
0.281354
0.281451
0.281538
0.281612
0.281672
0.281713
0.281735
0.28559
0.285607