# vtk DataFile Version 2.0
Pressure 3D1D coupled problem
ASCII
DATASET UNSTRUCTURED_GRID
POINTS 9261 float
0 0 0
0 0 0.1
0 0 0.2
0 0 0.3
0 0 0.4
0 0 0.5
0 0 0.6
0 0 0.7
0 0 0.8
0 0 0.9
0 0 1
0 0 1.1
0 0 1.2
0 0 1.3
0 0 1.4
0 0 1.5
0 0 1.6
0 0 1.7
0 0 1.8
0 0 1.9
0 0 2
0 0.1 0
0 0.1 0.1
0 0.1 0.2
0 0.1 0.3
0 0.1 0.4
0 0.1 0.5
0 0.1 0.6
0 0.1 0.7
0 0.1 0.8
0 0.1 0.9
0 0.1 1
0 0.1 1.1
0 0.1 1.2
0 0.1 1.3
0 0.1 1.4
0 0.1 1.5
0 0.1 1.6
0 0.1 1.7
0 0.1 1.8
0 0.1 1.9
0 0.1 2
0 0.2 0
0 0.2 0.1
0 0.2 0.2
0 0.2 0.3
0 0.2 0.4
0 0.2 0.5
0 0.2 0.6
0 0.2 0.7
0 0.2 0.8
0 0.2 0.9
0 0.2 1
0 0.2 1.1
0 0.2 1.2
0 0.2 1.3
0 0.2 1.4
0 0.2 1.5
0 0.2 1.6
0 0.2 1.7
0 0.2 1.8
0 0.2 1.9
0 0.2 2
0 0.3 0
0 0.3 0.1
0 0.3 0.2
0 0.3 0.3
0 0.3 0.4
0 0.3 0.5
0 0.3 0.6
0 0.3 0.7
0 0.3 0.8
0 0.3 0.9
0 0.3 1
0 0.3 1.1
0 0.3 1.2
0 0.3 1.3
0 0.3 1.4
0 0.3 1.5
0 0.3 1.6
0 0.3 1.7
0 0.3 1.8
0 0.3 1.9
0 0.3 2
0 0.4 0
0 0.4 0.1
0 0.4 0.2
0 0.4 0.3
0 0.4 0.4
0 0.4 0.5
0 0.4 0.6
0 0.4 0.7
0 0.4 0.8
0 0.4 0.9
0 0.4 1
0 0.4 1.1
0 0.4 1.2
0 0.4 1.3
0 0.4 1.4
0 0.4 1.5
0 0.4 1.6
0 0.4 1.7
0 0.4 1.8
0 0.4 1.9
0 0.4 2
0 0.5 0
0 0.5 0.1
0 0.5 0.2
0 0.5 0.3
0 0.5 0.4
0 0.5 0.5
0 0.5 0.6
0 0.5 0.7
0 0.5 0.8
0 0.5 0.9
0 0.5 1
0 0.5 1.1
0 0.5 1.2
0 0.5 1.3
0 0.5 1.4
0 0.5 1.5
0 0.5 1.6
0 0.5 1.7
0 0.5 1.8
0 0.5 1.9
0 0.5 2
0 0.6 0
0 0.6 0.1
0 0.6 0.2
0 0.6 0.3
0 0.6 0.4
0 0.6 0.5
0 0.6 0.6
0 0.6 0.7
0 0.6 0.8
0 0.6 0.9
0 0.6 1
0 0.6 1.1
0 0.6 1.2
0 0.6 1.3
0 0.6 1.4
0 0.6 1.5
0 0.6 1.6
0 0.6 1.7
0 0.6 1.8
0 0.6 1.9
0 0.6 2
0 0.7 0
0 0.7 0.1
0 0.7 0.2
0 0.7 0.3
0 0.7 0.4
0 0.7 0.5
0 0.7 0.6
0 0.7 0.7
0 0.7 0.8
0 0.7 0.9
0 0.7 1
0 0.7 1.1
0 0.7 1.2
0 0.7 1.3
0 0.7 1.4
0 0.7 1.5
0 0.7 1.6
0 0.7 1.7
0 0.7 1.8
0 0.7 1.9
0 0.7 2
0 0.8 0
0 0.8 0.1
0 0.8 0.2
0 0.8 0.3
0 0.8 0.4
0 0.8 0.5
0 0.8 0.6
0 0.8 0.7
0 0.8 0.8
0 0.8 0.9
0 0.8 1
0 0.8 1.1
0 0.8 1.2
0 0.8 1.3
0 0.8 1.4
0 0.8 1.5
0 0.8 1.6
0 0.8 1.7
0 0.8 1.8
0 0.8 1.9
0 0.8 2
0 0.9 0
0 0.9 0.1
0 0.9 0.2
0 0.9 0.3
0 0.9 0.4
0 0.9 0.5
0 0.9 0.6
0 0.9 0.7
0 0.9 0.8
0 0.9 0.9
0 0.9 1
0 0.9 1.1
0 0.9 1.2
0 0.9 1.3
0 0.9 1.4
0 0.9 1.5
0 0.9 1.6
0 0.9 1.7
0 0.9 1.8
0 0.9 1.9
0 0.9 2
0 1 0
0 1 0.1
0 1 0.2
0 1 0.3
0 1 0.4
0 1 0.5
0 1 0.6
0 1 0.7
0 1 0.8
0 1 0.9
0 1 1
0 1 1.1
0 1 1.2
0 1 1.3
0 1 1.4
0 1 1.5
0 1 1.6
0 1 1.7
0 1 1.8
0 1 1.9
0 1 2
0 1.1 0
0 1.1 0.1
0 1.1 0.2
0 1.1 0.3
0 1.1 0.4
0 1.1 0.5
0 1.1 0.6
0 1.1 0.7
0 1.1 0.8
0 1.1 0.9
0 1.1 1
0 1.1 1.1
0 1.1 1.2
0 1.1 1.3
0 1.1 1.4
0 1.1 1.5
0 1.1 1.6
0 1.1 1.7
0 1.1 1.8
0 1.1 1.9
0 1.1 2
0 1.2 0
0 1.2 0.1
0 1.2 0.2
0 1.2 0.3
0 1.2 0.4
0 1.2 0.5
0 1.2 0.6
0 1.2 0.7
0 1.2 0.8
0 1.2 0.9
0 1.2 1
0 1.2 1.1
0 1.2 1.2
0 1.2 1.3
0 1.2 1.4
0 1.2 1.5
0 1.2 1.6
0 1.2 1.7
0 1.2 1.8
0 1.2 1.9
0 1.2 2
0 1.3 0
0 1.3 0.1
0 1.3 0.2
0 1.3 0.3
0 1.3 0.4
0 1.3 0.5
0 1.3 0.6
0 1.3 0.7
0 1.3 0.8
0 1.3 0.9
0 1.3 1
0 1.3 1.1
0 1.3 1.2
0 1.3 1.3
0 1.3 1.4
0 1.3 1.5
0 1.3 1.6
0 1.3 1.7
0 1.3 1.8
0 1.3 1.9
0 1.3 2
0 1.4 0
0 1.4 0.1
0 1.4 0.2
0 1.4 0.3
0 1.4 0.4
0 1.4 0.5
0 1.4 0.6
0 1.4 0.7
0 1.4 0.8
0 1.4 0.9
0 1.4 1
0 1.4 1.1
0 1.4 1.2
0 1.4 1.3
0 1.4 1.4
0 1.4 1.5
0 1.4 1.6
0 1.4 1.7
0 1.4 1.8
0 1.4 1.9
0 1.4 2
0 1.5 0
0 1.5 0.1
0 1.5 0.2
0 1.5 0.3
0 1.5 0.4
0 1.5 0.5
0 1.5 0.6
0 1.5 0.7
0 1.5 0.8
0 1.5 0.9
0 1.5 1
0 1.5 1.1
0 1.5 1.2
0 1.5 1.3
0 1.5 1.4
0 1.5 1.5
0 1.5 1.6
0 1.5 1.7
0 1.5 1.8
0 1.5 1.9
0 1.5 2
0 1.6 0
0 1.6 0.1
0 1.6 0.2
0 1.6 0.3
0 1.6 0.4
0 1.6 0.5
0 1.6 0.6
0 1.6 0.7
0 1.6 0.8
0 1.6 0.9
0 1.6 1
0 1.6 1.1
0 1.6 1.2
0 1.6 1.3
0 1.6 1.4
0 1.6 1.5
0 1.6 1.6
0 1.6 1.7
0 1.6 1.8
0 1.6 1.9
0 1.6 2
0 1.7 0
0 1.7 0.1
0 1.7 0.2
0 1.7 0.3
0 1.7 0.4
0 1.7 0.5
0 1.7 0.6
0 1.7 0.7
0 1.7 0.8
0 1.7 0.9
0 1.7 1
0 1.7 1.1
0 1.7 1.2
0 1.7 1.3
0 1.7 1.4
0 1.7 1.5
0 1.7 1.6
0 1.7 1.7
0 1.7 1.8
0 1.7 1.9
0 1.7 2
0 1.8 0
0 1.8 0.1
0 1.8 0.2
0 1.8 0.3
0 1.8 0.4
0 1.8 0.5
0 1.8 0.6
0 1.8 0.7
0 1.8 0.8
0 1.8 0.9
0 1.8 1
0 1.8 1.1
0 1.8 1.2
0 1.8 1.3
0 1.8 1.4
0 1.8 1.5
0 1.8 1.6
0 1.8 1.7
0 1.8 1.8
0 1.8 1.9
0 1.8 2
0 1.9 0
0 1.9 0.1
0 1.9 0.2
0 1.9 0.3
0 1.9 0.4
0 1.9 0.5
0 1.9 0.6
0 1.9 0.7
0 1.9 0.8
0 1.9 0.9
0 1.9 1
0 1.9 1.1
0 1.9 1.2
0 1.9 1.3
0 1.9 1.4
0 1.9 1.5
0 1.9 1.6
0 1.9 1.7
0 1.9 1.8
0 1.9 1.9
0 1.9 2
0 2 0
0 2 0.1
0 2 0.2
0 2 0.3
0 2 0.4
0 2 0.5
0 2 0.6
0 2 0.7
0 2 0.8
0 2 0.9
0 2 1
0 2 1.1
0 2 1.2
0 2 1.3
0 2 1.4
0 2 1.5
0 2 1.6
0 2 1.7
0 2 1.8
0 2 1.9
0 2 2
0.1 0 0
0.1 0 0.1
0.1 0 0.2
0.1 0 0.3
0.1 0 0.4
0.1 0 0.5
0.1 0 0.6
0.1 0 0.7
0.1 0 0.8
0.1 0 0.9
0.1 0 1
0.1 0 1.1
0.1 0 1.2
0.1 0 1.3
0.1 0 1.4
0.1 0 1.5
0.1 0 1.6
0.1 0 1.7
0.1 0 1.8
0.1 0 1.9
0.1 0 2
0.1 0.1 0
0.1 0.1 0.1
0.1 0.1 0.2
0.1 0.1 0.3
0.1 0.1 0.4
0.1 0.1 0.5
0.1 0.1 0.6
0.1 0.1 0.7
0.1 0.1 0.8
0.1 0.1 0.9
0.1 0.1 1
0.1 0.1 1.1
0.1 0.1 1.2
0.1 0.1 1.3
0.1 0.1 1.4
0.1 0.1 1.5
0.1 0.1 1.6
0.1 0.1 1.7
0.1 0.1 1.8
0.1 0.1 1.9
0.1 0.1 2
0.1 0.2 0
0.1 0.2 0.1
0.1 0.2 0.2
0.1 0.2 0.3
0.1 0.2 0.4
0.1 0.2 0.5
0.1 0.2 0.6
0.1 0.2 0.7
0.1 0.2 0.8
0.1 0.2 0.9
0.1 0.2 1
0.1 0.2 1.1
0.1 0.2 1.2
0.1 0.2 1.3
0.1 0.2 1.4
0.1 0.2 1.5
0.1 0.2 1.6
0.1 0.2 1.7
0.1 0.2 1.8
0.1 0.2 1.9
0.1 0.2 2
0.1 0.3 0
0.1 0.3 0.1
0.1 0.3 0.2
0.1 0.3 0.3
0.1 0.3 0.4
0.1 0.3 0.5
0.1 0.3 0.6
0.1 0.3 0.7
0.1 0.3 0.8
0.1 0.3 0.9
0.1 0.3 1
0.1 0.3 1.1
0.1 0.3 1.2
0.1 0.3 1.3
0.1 0.3 1.4
0.1 0.3 1.5
0.1 0.3 1.6
0.1 0.3 1.7
0.1 0.3 1.8
0.1 0.3 1.9
0.1 0.3 2
0.1 0.4 0
0.1 0.4 0.1
0.1 0.4 0.2
0.1 0.4 0.3
0.1 0.4 0.4
0.1 0.4 0.5
0.1 0.4 0.6
0.1 0.4 0.7
0.1 0.4 0.8
0.1 0.4 0.9
0.1 0.4 1
0.1 0.4 1.1
0.1 0.4 1.2
0.1 0.4 1.3
0.1 0.4 1.4
0.1 0.4 1.5
0.1 0.4 1.6
0.1 0.4 1.7
0.1 0.4 1.8
0.1 0.4 1.9
0.1 0.4 2
0.1 0.5 0
0.1 0.5 0.1
0.1 0.5 0.2
0.1 0.5 0.3
0.1 0.5 0.4
0.1 0.5 0.5
0.1 0.5 0.6
0.1 0.5 0.7
0.1 0.5 0.8
0.1 0.5 0.9
0.1 0.5 1
0.1 0.5 1.1
0.1 0.5 1.2
0.1 0.5 1.3
0.1 0.5 1.4
0.1 0.5 1.5
0.1 0.5 1.6
0.1 0.5 1.7
0.1 0.5 1.8
0.1 0.5 1.9
0.1 0.5 2
0.1 0.6 0
0.1 0.6 0.1
0.1 0.6 0.2
0.1 0.6 0.3
0.1 0.6 0.4
0.1 0.6 0.5
0.1 0.6 0.6
0.1 0.6 0.7
0.1 0.6 0.8
0.1 0.6 0.9
0.1 0.6 1
0.1 0.6 1.1
0.1 0.6 1.2
0.1 0.6 1.3
0.1 0.6 1.4
0.1 0.6 1.5
0.1 0.6 1.6
0.1 0.6 1.7
0.1 0.6 1.8
0.1 0.6 1.9
0.1 0.6 2
0.1 0.7 0
0.1 0.7 0.1
0.1 0.7 0.2
0.1 0.7 0.3
0.1 0.7 0.4
0.1 0.7 0.5
0.1 0.7 0.6
0.1 0.7 0.7
0.1 0.7 0.8
0.1 0.7 0.9
0.1 0.7 1
0.1 0.7 1.1
0.1 0.7 1.2
0.1 0.7 1.3
0.1 0.7 1.4
0.1 0.7 1.5
0.1 0.7 1.6
0.1 0.7 1.7
0.1 0.7 1.8
0.1 0.7 1.9
0.1 0.7 2
0.1 0.8 0
0.1 0.8 0.1
0.1 0.8 0.2
0.1 0.8 0.3
0.1 0.8 0.4
0.1 0.8 0.5
0.1 0.8 0.6
0.1 0.8 0.7
0.1 0.8 0.8
0.1 0.8 0.9
0.1 0.8 1
0.1 0.8 1.1
0.1 0.8 1.2
0.1 0.8 1.3
0.1 0.8 1.4
0.1 0.8 1.5
0.1 0.8 1.6
0.1 0.8 1.7
0.1 0.8 1.8
0.1 0.8 1.9
0.1 0.8 2
0.1 0.9 0
0.1 0.9 0.1
0.1 0.9 0.2
0.1 0.9 0.3
0.1 0.9 0.4
0.1 0.9 0.5
0.1 0.9 0.6
0.1 0.9 0.7
0.1 0.9 0.8
0.1 0.9 0.9
0.1 0.9 1
0.1 0.9 1.1
0.1 0.9 1.2
0.1 0.9 1.3
0.1 0.9 1.4
0.1 0.9 1.5
0.1 0.9 1.6
0.1 0.9 1.7
0.1 0.9 1.8
0.1 0.9 1.9
0.1 0.9 2
0.1 1 0
0.1 1 0.1
0.1 1 0.2
0.1 1 0.3
0.1 1 0.4
0.1 1 0.5
0.1 1 0.6
0.1 1 0.7
0.1 1 0.8
0.1 1 0.9
0.1 1 1
0.1 1 1.1
0.1 1 1.2
0.1 1 1.3
0.1 1 1.4
0.1 1 1.5
0.1 1 1.6
0.1 1 1.7
0.1 1 1.8
0.1 1 1.9
0.1 1 2
0.1 1.1 0
0.1 1.1 0.1
0.1 1.1 0.2
0.1 1.1 0.3
0.1 1.1 0.4
0.1 1.1 0.5
0.1 1.1 0.6
0.1 1.1 0.7
0.1 1.1 0.8
0.1 1.1 0.9
0.1 1.1 1
0.1 1.1 1.1
0.1 1.1 1.2
0.1 1.1 1.3
0.1 1.1 1.4
0.1 1.1 1.5
0.1 1.1 1.6
0.1 1.1 1.7
0.1 1.1 1.8
0.1 1.1 1.9
0.1 1.1 2
0.1 1.2 0
0.1 1.2 0.1
0.1 1.2 0.2
0.1 1.2 0.3
0.1 1.2 0.4
0.1 1.2 0.5
0.1 1.2 0.6
0.1 1.2 0.7
0.1 1.2 0.8
0.1 1.2 0.9
0.1 1.2 1
0.1 1.2 1.1
0.1 1.2 1.2
0.1 1.2 1.3
0.1 1.2 1.4
0.1 1.2 1.5
0.1 1.2 1.6
0.1 1.2 1.7
0.1 1.2 1.8
0.1 1.2 1.9
0.1 1.2 2
0.1 1.3 0
0.1 1.3 0.1
0.1 1.3 0.2
0.1 1.3 0.3
0.1 1.3 0.4
0.1 1.3 0.5
0.1 1.3 0.6
0.1 1.3 0.7
0.1 1.3 0.8
0.1 1.3 0.9
0.1 1.3 1
0.1 1.3 1.1
0.1 1.3 1.2
0.1 1.3 1.3
0.1 1.3 1.4
0.1 1.3 1.5
0.1 1.3 1.6
0.1 1.3 1.7
0.1 1.3 1.8
0.1 1.3 1.9
0.1 1.3 2
0.1 1.4 0
0.1 1.4 0.1
0.1 1.4 0.2
0.1 1.4 0.3
0.1 1.4 0.4
0.1 1.4 0.5
0.1 1.4 0.6
0.1 1.4 0.7
0.1 1.4 0.8
0.1 1.4 0.9
0.1 1.4 1
0.1 1.4 1.1
0.1 1.4 1.2
0.1 1.4 1.3
0.1 1.4 1.4
0.1 1.4 1.5
0.1 1.4 1.6
0.1 1.4 1.7
0.1 1.4 1.8
0.1 1.4 1.9
0.1 1.4 2
0.1 1.5 0
0.1 1.5 0.1
0.1 1.5 0.2
0.1 1.5 0.3
0.1 1.5 0.4
0.1 1.5 0.5
0.1 1.5 0.6
0.1 1.5 0.7
0.1 1.5 0.8
0.1 1.5 0.9
0.1 1.5 1
0.1 1.5 1.1
0.1 1.5 1.2
0.1 1.5 1.3
0.1 1.5 1.4
0.1 1.5 1.5
0.1 1.5 1.6
0.1 1.5 1.7
0.1 1.5 1.8
0.1 1.5 1.9
0.1 1.5 2
0.1 1.6 0
0.1 1.6 0.1
0.1 1.6 0.2
0.1 1.6 0.3
0.1 1.6 0.4
0.1 1.6 0.5
0.1 1.6 0.6
0.1 1.6 0.7
0.1 1.6 0.8
0.1 1.6 0.9
0.1 1.6 1
0.1 1.6 1.1
0.1 1.6 1.2
0.1 1.6 1.3
0.1 1.6 1.4
0.1 1.6 1.5
0.1 1.6 1.6
0.1 1.6 1.7
0.1 1.6 1.8
0.1 1.6 1.9
0.1 1.6 2
0.1 1.7 0
0.1 1.7 0.1
0.1 1.7 0.2
0.1 1.7 0.3
0.1 1.7 0.4
0.1 1.7 0.5
0.1 1.7 0.6
0.1 1.7 0.7
0.1 1.7 0.8
0.1 1.7 0.9
0.1 1.7 1
0.1 1.7 1.1
0.1 1.7 1.2
0.1 1.7 1.3
0.1 1.7 1.4
0.1 1.7 1.5
0.1 1.7 1.6
0.1 1.7 1.7
0.1 1.7 1.8
0.1 1.7 1.9
0.1 1.7 2
0.1 1.8 0
0.1 1.8 0.1
0.1 1.8 0.2
0.1 1.8 0.3
0.1 1.8 0.4
0.1 1.8 0.5
0.1 1.8 0.6
0.1 1.8 0.7
0.1 1.8 0.8
0.1 1.8 0.9
0.1 1.8 1
0.1 1.8 1.1
0.1 1.8 1.2
0.1 1.8 1.3
0.1 1.8 1.4
0.1 1.8 1.5
0.1 1.8 1.6
0.1 1.8 1.7
0.1 1.8 1.8
0.1 1.8 1.9
0.1 1.8 2
0.1 1.9 0
0.1 1.9 0.1
0.1 1.9 0.2
0.1 1.9 0.3
0.1 1.9 0.4
0.1 1.9 0.5
0.1 1.9 0.6
0.1 1.9 0.7
0.1 1.9 0.8
0.1 1.9 0.9
0.1 1.9 1
0.1 1.9 1.1
0.1 1.9 1.2
0.1 1.9 1.3
0.1 1.9 1.4
0.1 1.9 1.5
0.1 1.9 1.6
0.1 1.9 1.7
0.1 1.9 1.8
0.1 1.9 1.9
0.1 1.9 2
0.1 2 0
0.1 2 0.1
0.1 2 0.2
0.1 2 0.3
0.1 2 0.4
0.1 2 0.5
0.1 2 0.6
0.1 2 0.7
0.1 2 0.8
0.1 2 0.9
0.1 2 1
0.1 2 1.1
0.1 2 1.2
0.1 2 1.3
0.1 2 1.4
0.1 2 1.5
0.1 2 1.6
0.1 2 1.7
0.1 2 1.8
0.1 2 1.9
0.1 2 2
0.2 0 0
0.2 0 0.1
0.2 0 0.2
0.2 0 0.3
0.2 0 0.4
0.2 0 0.5
0.2 0 0.6
0.2 0 0.7
0.2 0 0.8
0.2 0 0.9
0.2 0 1
0.2 0 1.1
0.2 0 1.2
0.2 0 1.3
0.2 0 1.4
0.2 0 1.5
0.2 0 1.6
0.2 0 1.7
0.2 0 1.8
0.2 0 1.9
0.2 0 2
0.2 0.1 0
0.2 0.1 0.1
0.2 0.1 0.2
0.2 0.1 0.3
0.2 0.1 0.4
0.2 0.1 0.5
0.2 0.1 0.6
0.2 0.1 0.7
0.2 0.1 0.8
0.2 0.1 0.9
0.2 0.1 1
0.2 0.1 1.1
0.2 0.1 1.2
0.2 0.1 1.3
0.2 0.1 1.4
0.2 0.1 1.5
0.2 0.1 1.6
0.2 0.1 1.7
0.2 0.1 1.8
0.2 0.1 1.9
0.2 0.1 2
0.2 0.2 0
0.2 0.2 0.1
0.2 0.2 0.2
0.2 0.2 0.3
0.2 0.2 0.4
0.2 0.2 0.5
0.2 0.2 0.6
0.2 0.2 0.7
0.2 0.2 0.8
0.2 0.2 0.9
0.2 0.2 1
0.2 0.2 1.1
0.2 0.2 1.2
0.2 0.2 1.3
0.2 0.2 1.4
0.2 0.2 1.5
0.2 0.2 1.6
0.2 0.2 1.7
0.2 0.2 1.8
0.2 0.2 1.9
[...]
CELL_DATA 8000
SCALARS Pressure_(3D) float 1
LOOKUP_TABLE default
12257.5
12323.5
12569.5
12933.6
13340.9
13778.9
14239.2
14718.3
15200.1
15668.6
16135.5
16608.9
17093.7
17575.2
18037.7
18485
18921.2
19335.7
19675.6
19864.6
12173.1
12181.8
12458.2
12859.9
13275.3
13720.5
14184.5
14671.8
15161.8
15625.9
16091.2
16563.6
17055.8
17545.7
18007.8
18455.8
18899.4
19342.2
19723
19933.8
13054.1
13016
13249.6
13630
14036.5
14478.6
14923.3
15379.7
15849
16304.3
16765.7
17215.7
17679.9
18151.2
18606.6
19052
19479.1
19906
20299.6
20561
15571.1
15523.8
15617.6
15893
16257.4
16691.9
17085.7
17444.1
17837.3
18263.7
18725.5
19120.2
19496.9
19898.4
20324.6
20768.3
21144.3
21485.5
21845.1
22180.5
19228.8
19217.4
19291.2
19480.6
19744.7
20056.4
20367.7
20673.4
20997.3
21339.4
21693.4
22024
22346.1
22677.8
23018.5
23357.7
23663.5
23942.2
24203.9
24402.5
22830
22841.3
22904.4
23035.5
23219
23437.5
23670.5
23911.2
24163.3
24424.7
24690.8
24951.2
25208.9
25468.5
25727.8
25979.8
26212
26420.3
26597
26711.2
26082.6
26100
26150.4
26241.3
26367.1
26518.6
26685.9
26863.7
27050
27242.4
27437.9
27633
27827.3
28021.1
28211.7
28394.4
28562.6
28709.9
28826.8
28895.5
28951.6
28966.8
29003.2
29064.2
29147.7
29249
29363.1
29486
29615.6
29749.7
29886.4
30024
30161.7
30298.4
30432.1
30559.2
30675.3
30775.1
30851.1
30893.7
31469.5
31479.7
31502.7
31540.1
31590.9
31652.9
31723.5
31800.3
31881.8
31966.5
32053.4
32141.5
32230.3
32318.6
32405
32487.1
32561.9
32625.4
32672.8
32698.9
33680.3
33684.9
33695.6
33713.5
33738
33768.2
33803
33841.2
33881.9
33924.7
33969.1
34014.9
34061.7
34109.2
34156.3
34201.6
34243.4
34279
34305.6
34320.4
35622.1
35621.6
35621.5
35622.8
35625.6
35629.6
35634.4
35640
35646.2
35653.3
35661.3
35670.8
35681.9
35694.7
35709
35724.2
35739.3
35753.1
35763.9
35770.2
37325
37319.8
37310.3
37297.7
37282.1
37264
37243.7
37221.6
37198.4
37174.8
37151.8
37130.2
37110.8
37094.3
37081
37071.2
37064.6
37060.9
37059.3
37059.1
38810.7
38801.4
38783.9
38759.3
38728.2
38691.5
38649.7
38604.1
38555.9
38506.2
38456.7
38408.5
38363.1
38321.7
38285.3
38254.6
38230.2
38212.2
38200.6
38195.3
40094.4
40081.6
40057.1
40022.4
39978.3
39925.7
39866
39800.4
39730.8
39659
39586.8
39516
39448.6
39386.2
39330.3
39282.3
39243.1
39213.4
39193.8
39184.4
41186
41170.3
41140.2
41097
41041.9
40976.1
40901.1
40818.9
40731.4
40640.9
40549.6
40459.9
40374
40294.1
40222.1
40159.6
40108.3
40069.1
40042.8
40030.1
42091.7
42073.7
42039
41988.9
41924.8
41848.1
41760.7
41664.6
41562.4
41456.5
41349.6
41244.3
41143.3
41049.1
40963.8
40889.7
40828.5
40781.6
40750
40734.5
42814.9
42795.2
42756.9
42701.3
42630
42544.7
42447.3
42340.4
42226.4
42108.3
41989
41871.4
41758.4
41652.8
41557.2
41473.9
41404.9
41351.8
41316.1
41298.3
43357.1
43336.1
43295.1
43235.5
43158.9
43067
42962.3
42847.1
42724.5
42597.3
42468.7
42341.9
42219.9
42105.9
42002.5
41912.3
41837.5
41780
41741.1
41721.6
43718.6
43696.8
43654
43591.7
43511.5
43415.4
43305.7
43185.1
43056.7
42923.4
42788.7
42655.7
42527.8
42408.2
42299.6
42204.9
42126.3
42065.8
42024.7
42004.1
43899.5
43877.2
43833.6
43769.9
43687.9
43589.7
43477.5
43354.2
43222.8
43086.5
42948.7
42812.7
42681.9
42559.4
42448.3
42351.3
42270.8
42208.7
42166.7
42145.5
12276
12285.2
12562.8
12964.1
13375.9
13815.1
14275.3
14762.1
15251.8
15713.2
16173.6
16643.1
17134.8
17624
18083
18525.5
18964.6
19403.9
19779.4
19984.3
11199
10938.3
11430.4
12002.6
12418.7
12885.5
13367.7
13914.9
14462.4
14903.7
15365.3
15846.4
16396.2
16938.7
17393
17835
18299
18847.2
19364.1
19586.9
11456.4
11070.8
11526.3
12111.3
12541.3
13021
13488.3
14010.5
14562.4
15017.3
15492
15949.4
16480.3
17025.8
17497.9
17950.4
18393.9
18923.7
19463.1
19830.2
14477.6
14197
14130.9
14479.7
14921.1
15581.8
16001.5
16244.6
16632.5
17112.4
17785.1
18139
18440.4
18841.9
19331.3
19963.2
20325.7
20590.2
21056.2
21913.5
19296.6
19202.2
19236.5
19439.1
19710.3
20040.6
20353
20647.2
20973.6
21318.2
21687.7
22009.6
22323.5
22657.9
23005
23358.9
23661.7
23938.4
24233.3
24514.6
23167.2
23155
23204.3
23332.7
23510.9
23723.5
23950.4
24185.6
24433.6
24688.2
24947.5
25200.1
25452
25707.5
25961.5
26207.7
26434.6
26641.2
26823.6
26950.1
26449
26459.4
26503.6
26589.8
26709.6
26854
27014.5
27185.9
27365.8
27550.5
27737.9
27925.2
28112.9
28300.2
28483.9
28659.7
28822
28965.6
29081.1
29150.5
29287.3
29299.8
29332.8
29389.8
29468.2
29563.6
29671.5
29788.2
29911.2
30038.3
30167.7
30298.3
30429.4
30559.7
30686.9
30808
30918.9
31014.7
31088.2
31129.8
31766.6
31775.3
31795.8
31829.9
31876.5
31933.6
31998.8
32070
32145.4
32223.8
32304.3
32386.1
32468.8
32551.2
32632
32708.9
32779.2
32839.1
32884.2
32909.1
33944.4
33947.9
33956.7
33971.7
33992.6
34018.6
34048.5
34081.5
34116.7
34153.7
34192.3
34232.3
34273.5
34315.6
34357.6
34398.5
34436.3
34468.8
34493.4
34507.1
35861.7
35860.1
35858.3
35857
35856.5
35856.5
35856.9
35857.6
35858.6
35860.2
35862.8
35866.8
35872.6
35880.4
35890
35901
35912.6
35923.6
35932.5
35938
37547.5
37541.3
37530.1
37515
37496.3
37474.4
37449.7
37422.8
37394.5
37365.7
37337.4
37310.5
37285.9
37264.5
37246.7
37232.9
37223
37216.6
37213.3
37212.3
39022.1
39011.8
38992.6
38965.5
38931.3
38890.8
38844.7
38794.3
38741
38686
38631.1
38577.6
38527.1
38480.8
38439.9
38405.3
38377.6
38357
38343.8
38337.7
40299.3
40285.4
40259.3
40222
40174.7
40118.2
40054
39983.6
39908.8
39831.6
39753.9
39677.7
39605
39537.6
39477.2
39425.2
39382.7
39350.5
39329.1
39318.9
41387.6
41370.9
41338.9
41293.1
41234.7
41164.9
41085.3
40998
40905.2
40809
40712.1
40616.8
40525.5
40440.5
40363.8
40297.3
40242.5
40200.7
40172.7
40159.2
42292.3
42273.2
42236.5
42183.8
42116.2
42035.4
41943.2
41841.9
41734.1
41622.4
41509.6
41398.5
41291.9
41192.4
41102.3
41024
40959.2
40909.6
40876.2
40859.9
43015.7
42994.9
42954.6
42896.3
42821.4
42731.7
42629.5
42517.1
42397.4
42273.3
42147.9
42024.3
41905.5
41794.4
41693.8
41606.1
41533.4
41477.6
41439.9
41421.3
43558.8
43536.7
43493.7
43431.2
43350.8
43254.6
43144.7
43024
42895.4
42762
42627.2
42494.2
42366.3
42246.6
42138.1
42043.4
41964.9
41904.4
41863.6
41843.2
43921.2
43898.3
43853.5
43788.2
43704.2
43603.6
43488.7
43362.4
43227.9
43088.3
42947.2
42807.9
42674
42548.5
42434.8
42335.4
42253
42189.5
42146.5
42124.9
44102.6
44079.2
44033.5
43966.9
43881.1
43778.2
43660.8
43531.8
43394.2
43251.6
43107.3
42964.9
42827.9
42699.7
42583.3
42481.6
42397.2
42332.2
42288.1
42265.9
13362.1
13325.6
13565.1
13946
14340.8
14760.1
15192.4
15650.4
16121.4
16568.1
17010.9
17452.1
17917.3
18388.4
18834.7
19260.2
19673.7
20092.5
20469.1
20706.6
11610.2
11206.7
11637.5
12227.9
12668.4
13146.8
13598.3
14107.1
14664.1
15130.3
15606
16044.9
16565.1
17114.1
17598.9
18051.4
18476.2
18992.3
19532.5
19933.9
11958.5
11250.5
11665.3
12287.1
12696
13143.1
13610.5
14139.1
14711
15153
15602.3
16055
16592.7
17150.7
17622.1
18047.7
18489.2
19021.1
19581.6
20065.2
16058.3
14523.8
14724.6
15448.4
15651.2
15722.3
16151.4
16754.3
17422.9
17731.5
17870.3
18298.6
18888.3
19498.2
19898.7
20026.5
20443
20997
21577.8
21986.3
20407.3
20111.2
20152
20395.5
20606.1
20819.3
21110.9
21453.6
21813.7
22108.4
22372.9
22684.3
23035.4
23392.7
23702.6
23958.8
24249.8
24562.5
24863.5
25073.9
24105.4
24055.9
24094.4
24217.2
24370.9
24548.4
24756.3
24986.2
25225.7
25455.7
25681
25915.7
26160.3
26405.9
26637.9
26853.1
27063.8
27265.4
27440
27550.8
27248.6
27249.7
27285.9
27362.9
27468.3
27595.1
27740.2
27898.6
28064.3
28231.4
28399.4
28570.3
28744.1
28917.3
29084.7
29243.2
29392
29525.8
29633.3
29696.6
29969.5
29978.2
30005.5
30054.8
30123
30206.2
30301.5
30405.5
30515.1
30627.6
30742.2
30858.5
30976.1
31093.2
31207.2
31315.6
31415.6
31502.6
31569.7
31607.6
32356.5
32362.6
32378.7
32406.5
32444.9
32492.3
32546.8
32606.5
32670
32735.8
32803.5
32872.8
32943.2
33013.9
33083.4
33149.9
33211.2
33263.9
33303.8
33326.2
34465.7
34467.1
34472
34481.6
34495.4
34512.9
34533.3
34555.9
34580.2
34605.9
34632.9
34661.5
34691.6
34722.9
34755
34786.8
34816.8
34843.2
34863.5
34875.1
36334.4
36330.8
36325.5
36319.2
36312.2
36304.4
36295.9
36286.8
36277.5
36268.3
36260.1
36253.3
36248.6
36246.3
36246.6
36249.3
36253.9
36259.4
36264.5
36268.2
37987.5
37979.3
37964.7
37944.7
37919.7
37890.2
37856.9
37820.5
37782.2
37742.9
37703.8
37666.3
37631.5
37600.3
37573.6
37551.8
37535.2
37523.7
37516.8
37514.2
39441.4
39429.1
39406.4
39374.5
39334
39285.8
39231.1
39171.2
39107.6
39042.1
38976.4
38912.3
38851.4
38795.4
38745.5
38703
38668.7
38643.1
38626.4
38618.8
40706.8
40690.9
40661.2
40618.9
40565.1
40500.8
40427.7
40347.5
40262.2
40174.1
40085.4
39998.3
39915
39837.7
39768.2
39708.2
39659
39621.6
39596.9
39585.1
41789.7
41770.8
41735.1
41684.2
41619
41541.1
41452.3
41354.8
41251.1
41143.7
41035.4
40928.7
40826.5
40731.2
40645.1
40570.3
40508.7
40461.5
40430.1
40415
42693.2
42671.9
42631.4
42573.2
42498.6
42409.3
42307.4
42195.6
42076.5
41953.1
41828.5
41705.6
41587.7
41477.4
41377.6
41290.7
41218.8
41163.6
41126.6
41108.7
43417.9
43394.8
43350.5
43286.6
43204.4
43106
42993.7
42870.3
42738.9
42602.7
42465
42329.2
42198.6
42076.4
41965.7
41869.1
41789
41727.5
41686
41665.7
43963.2
43938.9
43891.8
43823.5
43735.6
43630.3
43510.1
43378.1
43237.4
43091.5
42944
42798.4
42658.4
42527.2
42408.3
42304.4
42218.3
42151.9
42107.1
42084.9
44327.8
44302.7
44253.7
44182.5
44090.8
43980.8
43855.4
43717.5
43570.6
43418.3
43264.2
43112.1
42965.7
42828.7
42704.2
42595.5
42505.3
42435.7
42388.6
42365.1
44510.4
44484.9
44435
44362.3
44268.7
44156.4
44028.4
43887.6
43737.6
43582
43424.6
43269.3
43119.7
42979.6
42852.4
42741.3
42649
42577.9
42529.6
42505.4
16236.6
16208.9
16353.9
16632.4
16953.9
17305.5
17677.9
18069.2
18472.6
18865.2
19254.8
19644.5
20046.3
20452.1
20843
21215.9
21575.3
21924
22234.5
22439.2
15641.8
15390.1
15527.2
15882.1
16224.7
16596.5
16987
17397.4
17836.3
18238.6
18640.5
19034.4
19456.1
19894
20306
20691.2
21064.9
21451.3
21847.1
22181.3
15190.9
14040.9
14106.7
14684.8
15008.1
15400.5
15839.6
16256.6
16788.2
17182
17612.4
18003.9
18451.5
18957.3
19409.3
19805.2
20200.1
20603.8
21149.9
21969.8
18924.1
18436.6
18460.4
18774.3
19014.9
19255.1
19585.5
19970.7
20383.7
20704.8
20993.6
21332.9
21725.5
22131
22476.4
22756
23079.9
23439.5
23818.5
24141.3
22465
22326.9
22351.1
22511.2
22690.4
22888.6
23132.6
23410.4
23699.2
23959.5
24207
24474.7
24764.7
25057.2
25324
25563.4
25810.3
26061.8
26294.7
26454.8
25648
25621
25652.4
25748.2
25875.6
26026.3
26202.7
26398.4
26602.1
26800.4
26996.5
27199.5
27410.2
27620.8
27820.9
28008.2
28189.6
28360.5
28504.9
28594
28469.3
28471.3
28500.4
28562.6
28649.3
28754.8
28876.7
29010.5
29150.7
29292.3
29435
29580.7
29729.2
29877.2
30020.2
30155.9
30283.3
30397.5
30488.4
30541.3
30977.2
30983.3
31004
31042.6
31096.7
31163.2
31240
31324.3
31413.3
31504.7
31598
31693.2
31790
31886.7
31981.2
32071.4
32155
32228
32284.3
32316.3
33217.9
33221.1
33231.3
33250.3
33277.1
33310.7
33349.5
33392.4
33438.1
33485.6
33534.8
33585.7
33638
33691.2
33744.2
33795.6
33843.5
33885.4
33917.4
33935.8
35226.2
35224.7
35224.3
35226
35229.6
35234.9
35241.3
35248.8
35256.9
35265.9
35276
35287.7
35301.4
35317.1
35334.4
35352.9
35371.6
35388.8
35402.7
35411.2
37026.4
37020
37009.6
36996
36979.4
36960.1
36938.4
36915
36890.4
36865.4
36841
36818.2
36797.9
36780.8
36767.4
36757.9
36752.1
36749.3
36748.9
36749.8
38634.7
38623.8
38604.2
38576.9
38542.6
38501.8
38455.6
38405.1
38351.6
38296.6
38241.7
38188.4
38138.3
38092.6
38052.5
38018.9
37992.4
37973
37960.9
37955.7
40061.6
40046.4
40018.6
39979.3
39929.3
39869.7
39801.9
39727.6
39648.8
39567.4
39485.5
39405.4
39329
39258.3
39195.1
39140.7
39096.5
39063.2
39041.3
39031.2
41312.6
41293.8
41258.8
41208.9
41145.2
41069.2
40982.5
40887.5
40786.4
40681.8
40576.4
40472.8
40373.6
40281.2
40197.9
40125.7
40066.4
40021.2
39991.2
39977
42390.2
42368.3
42327
42268
42192.6
42102.3
41999.4
41886.5
41766.2
41641.7
41516
41392.2
41273.3
41162.3
41061.9
40974.5
40902.4
40847.1
40810.2
40792.6
43294.2
43269.6
43223.2
43156.7
43071.3
42969.1
42852.5
42724.5
42588.2
42446.9
42304.1
42163.3
42028
41901.3
41786.6
41686.5
41603.6
41540
41497.4
41476.8
44022.6
43996.2
43945.8
43873.1
43779.7
43667.8
43540.2
43399.9
43250.6
43095.7
42939.1
42784.6
42635.9
42496.8
42370.4
42260.2
42168.7
42098.3
42051
42027.8
44572.7
44545
44491.7
44414.3
44314.8
44195.6
44059.5
43910
43750.7
43585.6
43418.5
43253.7
43094.9
42946.2
42811.2
42693.2
42595.2
42519.7
42468.7
42443.5
44941.4
44913
44857.7
44777.1
44673.5
44549.3
44407.5
44251.8
44085.9
43913.8
43739.8
43567.9
43402.4
43247.3
43106.4
42983.2
42880.9
42801.9
42748.5
42721.8
45126.5
45097.6
45041.2
44959.1
44853.4
44726.7
44582.1
44423.3
44254
44078.5
43900.9
43725.5
43556.6
43398.3
43254.4
43128.6
43024.1
42943.4
42888.7
42861.4
19733.6
19738.3
19836.3
20026.4
20266.6
20539.6
20835.6
21148.3
21471
21792.4
22113.1
22435.1
22762
23089.3
23406.9
23710.3
23998.6
24266.6
24493.5
24635
19781.1
19715.5
19793.5
19996.2
20239.8
20514.7
20812.9
21128.4
21457.2
21777.9
22097.4
22417.1
22746.1
23079.1
23400
23704.2
23995.7
24276.3
24533.5
24716.6
20358.2
20135
20169.8
20390.7
20622.9
20887.1
21180.5
21488.7
21820.3
22128
22436.3
22743
23065.8
23399.5
23715.8
24009.9
24295.8
24578.8
24870.3
25133.3
22469.7
22344.9
22370.2
22527.6
22711.9
22920.1
23164.7
23435.1
23717.7
23980.4
24235.7
24502.6
24786.1
25073.2
25340.9
25586.6
25832.4
26077.8
26309.2
26478
25019
24977.7
25005.9
25109.9
25247.7
25410
25599.5
25809.5
26027.8
26238.9
26446.9
26662.4
26887.1
27112.1
27325.4
27524.9
27719.4
27905.5
28067.1
28170.7
27579.3
27573.3
27601.5
27671.8
27770.1
27889.5
28027.9
28180.4
28339.8
28498.8
28658.1
28821.3
28988.8
29155.9
29316.6
29468.9
29613.6
29746
29854.1
29918.7
30001.7
30005.6
30028.2
30074.3
30139.6
30220.2
30313.5
30416
30524
30633.9
30745.3
30859.2
30975.3
31091.2
31203.9
31311.5
31412.1
31501.5
31571.6
31612.1
32245.9
32249.5
32263.1
32289.1
32326.2
32372.6
32426.5
32485.8
32548.8
32613.7
32680.4
32748.9
32819.1
32890
32959.9
33027.4
33090.4
33145.7
33188.5
33213
34308.6
34308.4
34311.7
34319.8
34332.3
34348.6
34367.8
34389.3
34412.3
34436.6
34462.2
34489.5
34518.8
34549.7
34581.7
34614
34645.1
34673.2
34695.2
34708.4
36196.4
36191.4
36184.4
36176.1
36166.7
36156.3
36144.9
36132.8
36120.2
36107.7
36096
36086.1
36078.5
36073.8
36072.3
36073.8
36077.8
36083.4
36089.1
36093.4
37916.6
37906.8
37889.8
37866.6
37837.6
37803.3
37764.6
37722.4
37677.8
37632.1
37586.7
37542.9
37502.3
37465.8
37434.6
37409.1
37389.8
37376.4
37368.6
37365.8
39474.6
39460.1
39433.9
39397.1
39350.3
39294.6
39231.4
39162.1
39088.7
39013
38937
38862.8
38792.4
38727.5
38669.8
38620.5
38580.8
38551.2
38532.1
38523.5
40872.8
40854
40819.3
40770.2
40707.4
40632.5
40547.2
40453.7
40354.4
40251.7
40148.2
40046.7
39949.5
39859.3
39778.1
39707.9
39650.4
39606.7
39577.8
39564.3
42110.9
42088.3
42046.1
41985.9
41908.9
41816.8
41711.9
41596.8
41474.3
41347.6
41219.7
41093.8
40973
40860.2
40758.3
40669.7
40596.6
40540.7
40503.5
40485.8
43186.6
43160.5
43111.7
43041.9
42952.4
42845.2
42723.1
42589.1
42446.4
42298.6
42149.3
42002
41860.5
41728.2
41608.2
41503.6
41417
41350.6
41306.2
41284.9
44095.5
44066.6
44012.3
43934.2
43834
43714
43577.2
43427
43267
43101.2
42933.6
42768.2
42609.1
42460
42324.8
42206.6
42108.6
42033.3
41982.7
41958.4
44832.3
44801.4
44742.6
44657.8
44548.9
44418.3
44269.5
44106
43931.9
43751.4
43568.8
43388.6
43215
43052.4
42904.6
42775.4
42668.1
42585.5
42529.8
42502.8
45391.3
45359.1
45297.1
45207.1
45091.4
44952.8
44794.7
44621.1
44436.2
44244.4
44050.4
43858.9
43674.3
43501.3
43343.9
43206.3
43091.9
43003.6
42944
42914.6
45767.4
45734.4
45670.1
45576.7
45456.4
45312.3
45147.9
44967.4
44775.2
44575.8
44374.1
44174.9
43982.9
43802.8
43639
43495.7
43376.4
43284.4
43222
43191
45956.6
45923
45857.6
45762.4
45639.8
45492.9
45325.4
45141.5
44945.5
44742.3
44536.7
44333.6
44137.8
43954.2
43787.2
43640.9
43519.3
43425.3
43361.5
43329.7
23178.3
23197.7
23270.2
23401
23573.7
23776.1
23999.6
24237.9
24485.2
24735.2
24986.6
25239.4
25493.8
25746.8
25992.5
26226.7
26445.4
26641.4
26798.7
26891
23456.3
23455.6
23517
23645.3
23814.7
24012.8
24232.2
24466.5
24710.1
24954.8
25200.3
25447.3
25697.2
25946.8
26188.8
26419
26635.4
26832.9
26997.8
27100.6
24214.4
24181.4
24223.9
24344
24500.8
24685.1
24891.2
25112.1
25343.3
25572.5
25802.2
26033.6
26269.9
26507.2
26736.3
26953.2
27158.9
27350.4
27518.2
27632.6
25702.4
25681.3
25714.8
25810.4
25939.8
26093.7
26269.5
26461.2
26661.1
26859.1
27056.6
27258
27464.7
27671.5
27870.1
28057.8
28236.9
28403.6
28545.7
28636.2
27603.3
27598.5
27627.3
27697.8
27796.6
27916.6
28054.7
28206.1
28364.4
28523
28682.2
28844.8
29011
29176.9
29337
29488.8
29632.7
29763.8
29871.2
29935.8
29654.6
29657.3
29680.4
29729.4
29799.1
29885.1
29984.4
30093.6
30208.2
30324.8
30442.8
30563.3
30686.1
30808.7
30928
31041.8
31148.6
31243.9
31319.4
31363.4
31708.5
31711.9
31726.9
31756.8
31799.8
31853.5
31915.9
31984.6
32057.3
32132
32208.4
32286.9
32367.1
32447.8
32527.4
32603.9
32675.7
32739.1
32788.4
32816.8
33692.9
33693.2
33698.6
33710.9
33729.5
33753.4
33781.5
33812.6
33845.9
33880.6
33916.8
33954.7
33994.6
34036
34078.2
34120.1
34160.1
34196
34224.1
34240.7
35574.8
35570.6
35565.8
35561.5
35557.5
35553.9
35550.4
35547
35543.6
35540.7
35538.7
35538.4
35540.6
35545.5
35553.2
35563.3
35575.2
35587.4
35598.1
35605.3
37339.4
37330.3
37315.3
37295.2
37270.4
37241.4
37208.8
37173.4
37136
37097.9
37060.1
37024.2
36991.2
36962.4
36938.4
36919.7
36906.4
36898.2
36894.2
36893.6
38979.2
38965.3
38940.3
38905.4
38861.2
38808.8
38749.3
38684.2
38615.3
38544.3
38473.2
38404
38338.5
38278.5
38225.5
38180.7
38145
38118.7
38101.9
38094.7
40488.9
40470.2
40435.8
40387
40324.8
40250.6
40166.3
40073.8
39975.6
39874.2
39772.2
39672.1
39576.5
39487.9
39408.3
39339.7
39283.7
39241.4
39213.5
39200.6
41862.9
41839.7
41796.5
41734.9
41656
41561.8
41454.5
41336.8
41211.7
41082.2
40951.7
40823.2
40700
40585.2
40481.4
40391.3
40316.9
40260.2
40222.5
40204.5
43094.6
43067.2
43016
42942.6
42848.5
42736
42607.8
42467.2
42317.5
42162.6
42006.1
41851.8
41703.6
41564.9
41439.2
41329.7
41239
41169.5
41122.9
41100.5
44175.9
44144.9
44086.4
44002.4
43894.8
43765.9
43619.1
43457.9
43286.3
43108.6
42928.9
42751.7
42581.1
42421.3
42276.1
42149.4
42044.1
41963.3
41908.9
41882.6
45097.8
45063.7
44999
44905.9
44786.4
44643.3
44480.2
44301.2
44110.7
43913.2
43713.4
43516.3
43326.3
43148.2
42986.2
42844.6
42726.8
42636.2
42575.1
42545.5
45850.8
45814.3
45744.6
45643.9
45514.5
45359.6
45183.1
44989.2
44782.9
44569
44352.7
44139
43933
43739.7
43563.8
43409.8
43281.7
43182.9
43116.2
43083.6
46425.5
46387.4
46313.9
46207.3
46070.3
45906.2
45719.2
45513.9
45295.4
45068.8
44839.6
44613.2
44394.8
44189.8
44003.2
43839.7
43703.6
43598.5
43527.3
43492.2
46813.7
46774.6
46698.5
46587.9
46445.6
46275.3
46081.1
45868.1
45641.2
45406
45168.1
44932.9
44706.2
44493.2
44299.3
44129.3
43987.7
43878.2
43803.9
43766.9
47009.4
46969.7
46892.4
46779.7
46634.8
46461.2
46263.5
46046.4
45815.4
45575.8
45333.4
45093.9
44862.8
44645.8
44448.2
44274.9
44130.5
44018.8
43943
43905.1
26325.6
26346.2
26399.8
26490.1
26611
26755.3
26916.9
27090.6
27272.3
27457.9
27645.7
27834.9
28024.6
28212.3
28394.5
28567.1
28726
28864.2
28970.6
29030.4
26652
26666.4
26714.3
26800.3
26916.4
27055.3
27211.2
27379.1
27554.7
27733.8
27914.8
28097.4
28280.8
28462.8
28639.3
28806.8
28961.5
29097.5
29204.2
29265.8
27373.9
27379.3
27417.6
27494.5
27599.6
27726.1
27868.9
28023.2
28184.9
28349.2
28515.2
28682.9
28852.3
29020.7
29184.1
29339.2
29483.3
29611.4
29714.1
29775.5
28543.4
28547.4
28577.7
28640.2
28727.2
28833
28953.7
29085.1
29222.8
29362.9
29504.4
29648.2
29793.8
29938.9
30079.6
30213.4
30338.2
30449.3
30537.9
30590.1
30042
30046.5
30069.5
30115.8
30181.3
30261.9
30354.6
30456
30562.7
30671.7
30782.4
30895.2
31009.9
31124.3
31235.8
31342.2
31441.6
31529.5
31598.6
31638.6
31724.8
31728.2
31743.3
31773.2
31816.3
31870
31932.1
32000.5
32072.7
32147
32223
32301
32380.8
32461
32540
32616.1
32687.3
32750.2
32799.2
32827.4
33481.9
33482.3
33488.5
33502.2
33523
33549.6
33580.7
33615.3
33652.1
33690.3
33730.1
33771.6
33815.1
33860.1
33905.7
33950.8
33993.9
34032.4
34062.7
34080.5
35242.2
35238.5
35234.8
35232.5
35231.6
35231.7
35232.5
35233.8
35235.4