# vtk DataFile Version 2.0
Pressure 3D1D coupled problem
ASCII
DATASET UNSTRUCTURED_GRID
POINTS 9261 float
0 0 0
0 0 0.1
0 0 0.2
0 0 0.3
0 0 0.4
0 0 0.5
0 0 0.6
0 0 0.7
0 0 0.8
0 0 0.9
0 0 1
0 0 1.1
0 0 1.2
0 0 1.3
0 0 1.4
0 0 1.5
0 0 1.6
0 0 1.7
0 0 1.8
0 0 1.9
0 0 2
0 0.1 0
0 0.1 0.1
0 0.1 0.2
0 0.1 0.3
0 0.1 0.4
0 0.1 0.5
0 0.1 0.6
0 0.1 0.7
0 0.1 0.8
0 0.1 0.9
0 0.1 1
0 0.1 1.1
0 0.1 1.2
0 0.1 1.3
0 0.1 1.4
0 0.1 1.5
0 0.1 1.6
0 0.1 1.7
0 0.1 1.8
0 0.1 1.9
0 0.1 2
0 0.2 0
0 0.2 0.1
0 0.2 0.2
0 0.2 0.3
0 0.2 0.4
0 0.2 0.5
0 0.2 0.6
0 0.2 0.7
0 0.2 0.8
0 0.2 0.9
0 0.2 1
0 0.2 1.1
0 0.2 1.2
0 0.2 1.3
0 0.2 1.4
0 0.2 1.5
0 0.2 1.6
0 0.2 1.7
0 0.2 1.8
0 0.2 1.9
0 0.2 2
0 0.3 0
0 0.3 0.1
0 0.3 0.2
0 0.3 0.3
0 0.3 0.4
0 0.3 0.5
0 0.3 0.6
0 0.3 0.7
0 0.3 0.8
0 0.3 0.9
0 0.3 1
0 0.3 1.1
0 0.3 1.2
0 0.3 1.3
0 0.3 1.4
0 0.3 1.5
0 0.3 1.6
0 0.3 1.7
0 0.3 1.8
0 0.3 1.9
0 0.3 2
0 0.4 0
0 0.4 0.1
0 0.4 0.2
0 0.4 0.3
0 0.4 0.4
0 0.4 0.5
0 0.4 0.6
0 0.4 0.7
0 0.4 0.8
0 0.4 0.9
0 0.4 1
0 0.4 1.1
0 0.4 1.2
0 0.4 1.3
0 0.4 1.4
0 0.4 1.5
0 0.4 1.6
0 0.4 1.7
0 0.4 1.8
0 0.4 1.9
0 0.4 2
0 0.5 0
0 0.5 0.1
0 0.5 0.2
0 0.5 0.3
0 0.5 0.4
0 0.5 0.5
0 0.5 0.6
0 0.5 0.7
0 0.5 0.8
0 0.5 0.9
0 0.5 1
0 0.5 1.1
0 0.5 1.2
0 0.5 1.3
0 0.5 1.4
0 0.5 1.5
0 0.5 1.6
0 0.5 1.7
0 0.5 1.8
0 0.5 1.9
0 0.5 2
0 0.6 0
0 0.6 0.1
0 0.6 0.2
0 0.6 0.3
0 0.6 0.4
0 0.6 0.5
0 0.6 0.6
0 0.6 0.7
0 0.6 0.8
0 0.6 0.9
0 0.6 1
0 0.6 1.1
0 0.6 1.2
0 0.6 1.3
0 0.6 1.4
0 0.6 1.5
0 0.6 1.6
0 0.6 1.7
0 0.6 1.8
0 0.6 1.9
0 0.6 2
0 0.7 0
0 0.7 0.1
0 0.7 0.2
0 0.7 0.3
0 0.7 0.4
0 0.7 0.5
0 0.7 0.6
0 0.7 0.7
0 0.7 0.8
0 0.7 0.9
0 0.7 1
0 0.7 1.1
0 0.7 1.2
0 0.7 1.3
0 0.7 1.4
0 0.7 1.5
0 0.7 1.6
0 0.7 1.7
0 0.7 1.8
0 0.7 1.9
0 0.7 2
0 0.8 0
0 0.8 0.1
0 0.8 0.2
0 0.8 0.3
0 0.8 0.4
0 0.8 0.5
0 0.8 0.6
0 0.8 0.7
0 0.8 0.8
0 0.8 0.9
0 0.8 1
0 0.8 1.1
0 0.8 1.2
0 0.8 1.3
0 0.8 1.4
0 0.8 1.5
0 0.8 1.6
0 0.8 1.7
0 0.8 1.8
0 0.8 1.9
0 0.8 2
0 0.9 0
0 0.9 0.1
0 0.9 0.2
0 0.9 0.3
0 0.9 0.4
0 0.9 0.5
0 0.9 0.6
0 0.9 0.7
0 0.9 0.8
0 0.9 0.9
0 0.9 1
0 0.9 1.1
0 0.9 1.2
0 0.9 1.3
0 0.9 1.4
0 0.9 1.5
0 0.9 1.6
0 0.9 1.7
0 0.9 1.8
0 0.9 1.9
0 0.9 2
0 1 0
0 1 0.1
0 1 0.2
0 1 0.3
0 1 0.4
0 1 0.5
0 1 0.6
0 1 0.7
0 1 0.8
0 1 0.9
0 1 1
0 1 1.1
0 1 1.2
0 1 1.3
0 1 1.4
0 1 1.5
0 1 1.6
0 1 1.7
0 1 1.8
0 1 1.9
0 1 2
0 1.1 0
0 1.1 0.1
0 1.1 0.2
0 1.1 0.3
0 1.1 0.4
0 1.1 0.5
0 1.1 0.6
0 1.1 0.7
0 1.1 0.8
0 1.1 0.9
0 1.1 1
0 1.1 1.1
0 1.1 1.2
0 1.1 1.3
0 1.1 1.4
0 1.1 1.5
0 1.1 1.6
0 1.1 1.7
0 1.1 1.8
0 1.1 1.9
0 1.1 2
0 1.2 0
0 1.2 0.1
0 1.2 0.2
0 1.2 0.3
0 1.2 0.4
0 1.2 0.5
0 1.2 0.6
0 1.2 0.7
0 1.2 0.8
0 1.2 0.9
0 1.2 1
0 1.2 1.1
0 1.2 1.2
0 1.2 1.3
0 1.2 1.4
0 1.2 1.5
0 1.2 1.6
0 1.2 1.7
0 1.2 1.8
0 1.2 1.9
0 1.2 2
0 1.3 0
0 1.3 0.1
0 1.3 0.2
0 1.3 0.3
0 1.3 0.4
0 1.3 0.5
0 1.3 0.6
0 1.3 0.7
0 1.3 0.8
0 1.3 0.9
0 1.3 1
0 1.3 1.1
0 1.3 1.2
0 1.3 1.3
0 1.3 1.4
0 1.3 1.5
0 1.3 1.6
0 1.3 1.7
0 1.3 1.8
0 1.3 1.9
0 1.3 2
0 1.4 0
0 1.4 0.1
0 1.4 0.2
0 1.4 0.3
0 1.4 0.4
0 1.4 0.5
0 1.4 0.6
0 1.4 0.7
0 1.4 0.8
0 1.4 0.9
0 1.4 1
0 1.4 1.1
0 1.4 1.2
0 1.4 1.3
0 1.4 1.4
0 1.4 1.5
0 1.4 1.6
0 1.4 1.7
0 1.4 1.8
0 1.4 1.9
0 1.4 2
0 1.5 0
0 1.5 0.1
0 1.5 0.2
0 1.5 0.3
0 1.5 0.4
0 1.5 0.5
0 1.5 0.6
0 1.5 0.7
0 1.5 0.8
0 1.5 0.9
0 1.5 1
0 1.5 1.1
0 1.5 1.2
0 1.5 1.3
0 1.5 1.4
0 1.5 1.5
0 1.5 1.6
0 1.5 1.7
0 1.5 1.8
0 1.5 1.9
0 1.5 2
0 1.6 0
0 1.6 0.1
0 1.6 0.2
0 1.6 0.3
0 1.6 0.4
0 1.6 0.5
0 1.6 0.6
0 1.6 0.7
0 1.6 0.8
0 1.6 0.9
0 1.6 1
0 1.6 1.1
0 1.6 1.2
0 1.6 1.3
0 1.6 1.4
0 1.6 1.5
0 1.6 1.6
0 1.6 1.7
0 1.6 1.8
0 1.6 1.9
0 1.6 2
0 1.7 0
0 1.7 0.1
0 1.7 0.2
0 1.7 0.3
0 1.7 0.4
0 1.7 0.5
0 1.7 0.6
0 1.7 0.7
0 1.7 0.8
0 1.7 0.9
0 1.7 1
0 1.7 1.1
0 1.7 1.2
0 1.7 1.3
0 1.7 1.4
0 1.7 1.5
0 1.7 1.6
0 1.7 1.7
0 1.7 1.8
0 1.7 1.9
0 1.7 2
0 1.8 0
0 1.8 0.1
0 1.8 0.2
0 1.8 0.3
0 1.8 0.4
0 1.8 0.5
0 1.8 0.6
0 1.8 0.7
0 1.8 0.8
0 1.8 0.9
0 1.8 1
0 1.8 1.1
0 1.8 1.2
0 1.8 1.3
0 1.8 1.4
0 1.8 1.5
0 1.8 1.6
0 1.8 1.7
0 1.8 1.8
0 1.8 1.9
0 1.8 2
0 1.9 0
0 1.9 0.1
0 1.9 0.2
0 1.9 0.3
0 1.9 0.4
0 1.9 0.5
0 1.9 0.6
0 1.9 0.7
0 1.9 0.8
0 1.9 0.9
0 1.9 1
0 1.9 1.1
0 1.9 1.2
0 1.9 1.3
0 1.9 1.4
0 1.9 1.5
0 1.9 1.6
0 1.9 1.7
0 1.9 1.8
0 1.9 1.9
0 1.9 2
0 2 0
0 2 0.1
0 2 0.2
0 2 0.3
0 2 0.4
0 2 0.5
0 2 0.6
0 2 0.7
0 2 0.8
0 2 0.9
0 2 1
0 2 1.1
0 2 1.2
0 2 1.3
0 2 1.4
0 2 1.5
0 2 1.6
0 2 1.7
0 2 1.8
0 2 1.9
0 2 2
0.1 0 0
0.1 0 0.1
0.1 0 0.2
0.1 0 0.3
0.1 0 0.4
0.1 0 0.5
0.1 0 0.6
0.1 0 0.7
0.1 0 0.8
0.1 0 0.9
0.1 0 1
0.1 0 1.1
0.1 0 1.2
0.1 0 1.3
0.1 0 1.4
0.1 0 1.5
0.1 0 1.6
0.1 0 1.7
0.1 0 1.8
0.1 0 1.9
0.1 0 2
0.1 0.1 0
0.1 0.1 0.1
0.1 0.1 0.2
0.1 0.1 0.3
0.1 0.1 0.4
0.1 0.1 0.5
0.1 0.1 0.6
0.1 0.1 0.7
0.1 0.1 0.8
0.1 0.1 0.9
0.1 0.1 1
0.1 0.1 1.1
0.1 0.1 1.2
0.1 0.1 1.3
0.1 0.1 1.4
0.1 0.1 1.5
0.1 0.1 1.6
0.1 0.1 1.7
0.1 0.1 1.8
0.1 0.1 1.9
0.1 0.1 2
0.1 0.2 0
0.1 0.2 0.1
0.1 0.2 0.2
0.1 0.2 0.3
0.1 0.2 0.4
0.1 0.2 0.5
0.1 0.2 0.6
0.1 0.2 0.7
0.1 0.2 0.8
0.1 0.2 0.9
0.1 0.2 1
0.1 0.2 1.1
0.1 0.2 1.2
0.1 0.2 1.3
0.1 0.2 1.4
0.1 0.2 1.5
0.1 0.2 1.6
0.1 0.2 1.7
0.1 0.2 1.8
0.1 0.2 1.9
0.1 0.2 2
0.1 0.3 0
0.1 0.3 0.1
0.1 0.3 0.2
0.1 0.3 0.3
0.1 0.3 0.4
0.1 0.3 0.5
0.1 0.3 0.6
0.1 0.3 0.7
0.1 0.3 0.8
0.1 0.3 0.9
0.1 0.3 1
0.1 0.3 1.1
0.1 0.3 1.2
0.1 0.3 1.3
0.1 0.3 1.4
0.1 0.3 1.5
0.1 0.3 1.6
0.1 0.3 1.7
0.1 0.3 1.8
0.1 0.3 1.9
0.1 0.3 2
0.1 0.4 0
0.1 0.4 0.1
0.1 0.4 0.2
0.1 0.4 0.3
0.1 0.4 0.4
0.1 0.4 0.5
0.1 0.4 0.6
0.1 0.4 0.7
0.1 0.4 0.8
0.1 0.4 0.9
0.1 0.4 1
0.1 0.4 1.1
0.1 0.4 1.2
0.1 0.4 1.3
0.1 0.4 1.4
0.1 0.4 1.5
0.1 0.4 1.6
0.1 0.4 1.7
0.1 0.4 1.8
0.1 0.4 1.9
0.1 0.4 2
0.1 0.5 0
0.1 0.5 0.1
0.1 0.5 0.2
0.1 0.5 0.3
0.1 0.5 0.4
0.1 0.5 0.5
0.1 0.5 0.6
0.1 0.5 0.7
0.1 0.5 0.8
0.1 0.5 0.9
0.1 0.5 1
0.1 0.5 1.1
0.1 0.5 1.2
0.1 0.5 1.3
0.1 0.5 1.4
0.1 0.5 1.5
0.1 0.5 1.6
0.1 0.5 1.7
0.1 0.5 1.8
0.1 0.5 1.9
0.1 0.5 2
0.1 0.6 0
0.1 0.6 0.1
0.1 0.6 0.2
0.1 0.6 0.3
0.1 0.6 0.4
0.1 0.6 0.5
0.1 0.6 0.6
0.1 0.6 0.7
0.1 0.6 0.8
0.1 0.6 0.9
0.1 0.6 1
0.1 0.6 1.1
0.1 0.6 1.2
0.1 0.6 1.3
0.1 0.6 1.4
0.1 0.6 1.5
0.1 0.6 1.6
0.1 0.6 1.7
0.1 0.6 1.8
0.1 0.6 1.9
0.1 0.6 2
0.1 0.7 0
0.1 0.7 0.1
0.1 0.7 0.2
0.1 0.7 0.3
0.1 0.7 0.4
0.1 0.7 0.5
0.1 0.7 0.6
0.1 0.7 0.7
0.1 0.7 0.8
0.1 0.7 0.9
0.1 0.7 1
0.1 0.7 1.1
0.1 0.7 1.2
0.1 0.7 1.3
0.1 0.7 1.4
0.1 0.7 1.5
0.1 0.7 1.6
0.1 0.7 1.7
0.1 0.7 1.8
0.1 0.7 1.9
0.1 0.7 2
0.1 0.8 0
0.1 0.8 0.1
0.1 0.8 0.2
0.1 0.8 0.3
0.1 0.8 0.4
0.1 0.8 0.5
0.1 0.8 0.6
0.1 0.8 0.7
0.1 0.8 0.8
0.1 0.8 0.9
0.1 0.8 1
0.1 0.8 1.1
0.1 0.8 1.2
0.1 0.8 1.3
0.1 0.8 1.4
0.1 0.8 1.5
0.1 0.8 1.6
0.1 0.8 1.7
0.1 0.8 1.8
0.1 0.8 1.9
0.1 0.8 2
0.1 0.9 0
0.1 0.9 0.1
0.1 0.9 0.2
0.1 0.9 0.3
0.1 0.9 0.4
0.1 0.9 0.5
0.1 0.9 0.6
0.1 0.9 0.7
0.1 0.9 0.8
0.1 0.9 0.9
0.1 0.9 1
0.1 0.9 1.1
0.1 0.9 1.2
0.1 0.9 1.3
0.1 0.9 1.4
0.1 0.9 1.5
0.1 0.9 1.6
0.1 0.9 1.7
0.1 0.9 1.8
0.1 0.9 1.9
0.1 0.9 2
0.1 1 0
0.1 1 0.1
0.1 1 0.2
0.1 1 0.3
0.1 1 0.4
0.1 1 0.5
0.1 1 0.6
0.1 1 0.7
0.1 1 0.8
0.1 1 0.9
0.1 1 1
0.1 1 1.1
0.1 1 1.2
0.1 1 1.3
0.1 1 1.4
0.1 1 1.5
0.1 1 1.6
0.1 1 1.7
0.1 1 1.8
0.1 1 1.9
0.1 1 2
0.1 1.1 0
0.1 1.1 0.1
0.1 1.1 0.2
0.1 1.1 0.3
0.1 1.1 0.4
0.1 1.1 0.5
0.1 1.1 0.6
0.1 1.1 0.7
0.1 1.1 0.8
0.1 1.1 0.9
0.1 1.1 1
0.1 1.1 1.1
0.1 1.1 1.2
0.1 1.1 1.3
0.1 1.1 1.4
0.1 1.1 1.5
0.1 1.1 1.6
0.1 1.1 1.7
0.1 1.1 1.8
0.1 1.1 1.9
0.1 1.1 2
0.1 1.2 0
0.1 1.2 0.1
0.1 1.2 0.2
0.1 1.2 0.3
0.1 1.2 0.4
0.1 1.2 0.5
0.1 1.2 0.6
0.1 1.2 0.7
0.1 1.2 0.8
0.1 1.2 0.9
0.1 1.2 1
0.1 1.2 1.1
0.1 1.2 1.2
0.1 1.2 1.3
0.1 1.2 1.4
0.1 1.2 1.5
0.1 1.2 1.6
0.1 1.2 1.7
0.1 1.2 1.8
0.1 1.2 1.9
0.1 1.2 2
0.1 1.3 0
0.1 1.3 0.1
0.1 1.3 0.2
0.1 1.3 0.3
0.1 1.3 0.4
0.1 1.3 0.5
0.1 1.3 0.6
0.1 1.3 0.7
0.1 1.3 0.8
0.1 1.3 0.9
0.1 1.3 1
0.1 1.3 1.1
0.1 1.3 1.2
0.1 1.3 1.3
0.1 1.3 1.4
0.1 1.3 1.5
0.1 1.3 1.6
0.1 1.3 1.7
0.1 1.3 1.8
0.1 1.3 1.9
0.1 1.3 2
0.1 1.4 0
0.1 1.4 0.1
0.1 1.4 0.2
0.1 1.4 0.3
0.1 1.4 0.4
0.1 1.4 0.5
0.1 1.4 0.6
0.1 1.4 0.7
0.1 1.4 0.8
0.1 1.4 0.9
0.1 1.4 1
0.1 1.4 1.1
0.1 1.4 1.2
0.1 1.4 1.3
0.1 1.4 1.4
0.1 1.4 1.5
0.1 1.4 1.6
0.1 1.4 1.7
0.1 1.4 1.8
0.1 1.4 1.9
0.1 1.4 2
0.1 1.5 0
0.1 1.5 0.1
0.1 1.5 0.2
0.1 1.5 0.3
0.1 1.5 0.4
0.1 1.5 0.5
0.1 1.5 0.6
0.1 1.5 0.7
0.1 1.5 0.8
0.1 1.5 0.9
0.1 1.5 1
0.1 1.5 1.1
0.1 1.5 1.2
0.1 1.5 1.3
0.1 1.5 1.4
0.1 1.5 1.5
0.1 1.5 1.6
0.1 1.5 1.7
0.1 1.5 1.8
0.1 1.5 1.9
0.1 1.5 2
0.1 1.6 0
0.1 1.6 0.1
0.1 1.6 0.2
0.1 1.6 0.3
0.1 1.6 0.4
0.1 1.6 0.5
0.1 1.6 0.6
0.1 1.6 0.7
0.1 1.6 0.8
0.1 1.6 0.9
0.1 1.6 1
0.1 1.6 1.1
0.1 1.6 1.2
0.1 1.6 1.3
0.1 1.6 1.4
0.1 1.6 1.5
0.1 1.6 1.6
0.1 1.6 1.7
0.1 1.6 1.8
0.1 1.6 1.9
0.1 1.6 2
0.1 1.7 0
0.1 1.7 0.1
0.1 1.7 0.2
0.1 1.7 0.3
0.1 1.7 0.4
0.1 1.7 0.5
0.1 1.7 0.6
0.1 1.7 0.7
0.1 1.7 0.8
0.1 1.7 0.9
0.1 1.7 1
0.1 1.7 1.1
0.1 1.7 1.2
0.1 1.7 1.3
0.1 1.7 1.4
0.1 1.7 1.5
0.1 1.7 1.6
0.1 1.7 1.7
0.1 1.7 1.8
0.1 1.7 1.9
0.1 1.7 2
0.1 1.8 0
0.1 1.8 0.1
0.1 1.8 0.2
0.1 1.8 0.3
0.1 1.8 0.4
0.1 1.8 0.5
0.1 1.8 0.6
0.1 1.8 0.7
0.1 1.8 0.8
0.1 1.8 0.9
0.1 1.8 1
0.1 1.8 1.1
0.1 1.8 1.2
0.1 1.8 1.3
0.1 1.8 1.4
0.1 1.8 1.5
0.1 1.8 1.6
0.1 1.8 1.7
0.1 1.8 1.8
0.1 1.8 1.9
0.1 1.8 2
0.1 1.9 0
0.1 1.9 0.1
0.1 1.9 0.2
0.1 1.9 0.3
0.1 1.9 0.4
0.1 1.9 0.5
0.1 1.9 0.6
0.1 1.9 0.7
0.1 1.9 0.8
0.1 1.9 0.9
0.1 1.9 1
0.1 1.9 1.1
0.1 1.9 1.2
0.1 1.9 1.3
0.1 1.9 1.4
0.1 1.9 1.5
0.1 1.9 1.6
0.1 1.9 1.7
0.1 1.9 1.8
0.1 1.9 1.9
0.1 1.9 2
0.1 2 0
0.1 2 0.1
0.1 2 0.2
0.1 2 0.3
0.1 2 0.4
0.1 2 0.5
0.1 2 0.6
0.1 2 0.7
0.1 2 0.8
0.1 2 0.9
0.1 2 1
0.1 2 1.1
0.1 2 1.2
0.1 2 1.3
0.1 2 1.4
0.1 2 1.5
0.1 2 1.6
0.1 2 1.7
0.1 2 1.8
0.1 2 1.9
0.1 2 2
0.2 0 0
0.2 0 0.1
0.2 0 0.2
0.2 0 0.3
0.2 0 0.4
0.2 0 0.5
0.2 0 0.6
0.2 0 0.7
0.2 0 0.8
0.2 0 0.9
0.2 0 1
0.2 0 1.1
0.2 0 1.2
0.2 0 1.3
0.2 0 1.4
0.2 0 1.5
0.2 0 1.6
0.2 0 1.7
0.2 0 1.8
0.2 0 1.9
0.2 0 2
0.2 0.1 0
0.2 0.1 0.1
0.2 0.1 0.2
0.2 0.1 0.3
0.2 0.1 0.4
0.2 0.1 0.5
0.2 0.1 0.6
0.2 0.1 0.7
0.2 0.1 0.8
0.2 0.1 0.9
0.2 0.1 1
0.2 0.1 1.1
0.2 0.1 1.2
0.2 0.1 1.3
0.2 0.1 1.4
0.2 0.1 1.5
0.2 0.1 1.6
0.2 0.1 1.7
0.2 0.1 1.8
0.2 0.1 1.9
0.2 0.1 2
0.2 0.2 0
0.2 0.2 0.1
0.2 0.2 0.2
0.2 0.2 0.3
0.2 0.2 0.4
0.2 0.2 0.5
0.2 0.2 0.6
0.2 0.2 0.7
0.2 0.2 0.8
0.2 0.2 0.9
0.2 0.2 1
0.2 0.2 1.1
0.2 0.2 1.2
0.2 0.2 1.3
0.2 0.2 1.4
0.2 0.2 1.5
0.2 0.2 1.6
0.2 0.2 1.7
0.2 0.2 1.8
0.2 0.2 1.9
[...]
CELL_DATA 8000
SCALARS Phi_sigma_(3D) float 1
LOOKUP_TABLE default
0.0014759
0.00146205
0.00144678
0.00143521
0.00142529
0.00141667
0.00140902
0.00140169
0.00139493
0.00138775
0.00138034
0.00137292
0.0013664
0.00136156
0.00135821
0.00135626
0.00135678
0.00136117
0.00137065
0.001381
0.0015375
0.00151678
0.00149832
0.00148736
0.00147726
0.00146849
0.00146094
0.00145332
0.00144691
0.00143945
0.00143173
0.00142368
0.00141665
0.00141188
0.00140854
0.00140607
0.00140601
0.00141005
0.00142216
0.00143861
0.00169222
0.00167142
0.00165303
0.00164247
0.00163273
0.00162443
0.00161682
0.00160848
0.00160134
0.00159333
0.00158535
0.00157651
0.0015683
0.00156238
0.00155817
0.00155511
0.00155401
0.00155664
0.00156799
0.00158518
0.00194788
0.00193616
0.00192299
0.00191299
0.0019042
0.00189643
0.00188839
0.0018794
0.00187059
0.00186161
0.00185276
0.00184301
0.00183338
0.00182524
0.00181895
0.00181458
0.00181187
0.00181218
0.00181809
0.00182719
0.00227461
0.00226835
0.00225984
0.0022516
0.00224353
0.00223546
0.00222683
0.00221736
0.00220741
0.00219699
0.00218623
0.00217502
0.00216393
0.0021538
0.00214511
0.00213815
0.00213317
0.00213087
0.00213196
0.00213478
0.00265874
0.00265504
0.00264916
0.00264229
0.00263472
0.00262639
0.00261712
0.00260682
0.00259559
0.00258355
0.00257088
0.00255777
0.00254473
0.00253235
0.00252117
0.00251162
0.00250414
0.00249917
0.00249689
0.00249653
0.00309718
0.00309459
0.00308999
0.00308389
0.0030765
0.00306784
0.00305783
0.00304645
0.00303378
0.00301995
0.00300522
0.00298992
0.00297454
0.00295966
0.00294587
0.00293372
0.00292372
0.0029163
0.00291167
0.00290959
0.00358833
0.00358619
0.00358213
0.00357632
0.00356886
0.0035597
0.00354882
0.0035362
0.00352191
0.00350613
0.00348916
0.0034714
0.0034534
0.00343578
0.00341921
0.00340436
0.00339185
0.00338219
0.00337571
0.00337251
0.00412888
0.00412691
0.00412301
0.00411721
0.00410946
0.00409969
0.00408781
0.00407382
0.00405777
0.00403988
0.00402047
0.00400002
0.00397915
0.00395858
0.00393906
0.00392139
0.00390632
0.00389449
0.00388638
0.00388227
0.00471273
0.0047108
0.00470689
0.00470093
0.00469278
0.00468229
0.00466934
0.00465388
0.00463597
0.00461583
0.00459382
0.0045705
0.00454656
0.00452282
0.00450018
0.00447956
0.00446186
0.00444785
0.00443816
0.00443321
0.00533053
0.00532857
0.00532457
0.00531838
0.00530977
0.00529853
0.00528446
0.00526749
0.00524765
0.00522516
0.00520044
0.0051741
0.00514694
0.00511988
0.00509396
0.00507027
0.00504984
0.00503361
0.00502234
0.00501657
0.00596953
0.00596754
0.00596343
0.00595698
0.0059479
0.0059359
0.00592072
0.00590222
0.00588042
0.00585555
0.00582806
0.00579863
0.00576814
0.00573767
0.00570838
0.00568153
0.00565831
0.00563983
0.00562696
0.00562037
0.00661382
0.00661178
0.00660756
0.00660087
0.00659136
0.00657863
0.00656237
0.00654239
0.00651867
0.00649143
0.00646118
0.00642864
0.00639482
0.0063609
0.00632823
0.00629819
0.00627217
0.00625141
0.00623695
0.00622953
0.00724468
0.00724262
0.00723831
0.00723142
0.00722151
0.00720813
0.00719087
0.00716948
0.00714391
0.00711441
0.00708147
0.00704592
0.00700884
0.00697155
0.00693555
0.00690238
0.00687361
0.00685062
0.0068346
0.00682637
0.00784144
0.00783936
0.00783499
0.00782795
0.00781771
0.00780375
0.00778559
0.00776291
0.00773565
0.00770402
0.00766858
0.00763018
0.00759002
0.00754955
0.00751038
0.00747425
0.00744285
0.00741775
0.00740024
0.00739124
0.00838246
0.00838037
0.00837598
0.00836882
0.00835832
0.00834388
0.00832494
0.00830114
0.00827237
0.00823885
0.00820114
0.00816018
0.00811723
0.00807386
0.00803182
0.00799298
0.00795919
0.00793216
0.00791328
0.00790358
0.00884647
0.0088444
0.00883999
0.00883276
0.00882207
0.00880723
0.00878766
0.00876292
0.00873288
0.00869775
0.00865812
0.00861496
0.00856963
0.00852376
0.00847925
0.00843808
0.00840223
0.00837352
0.00835347
0.00834317
0.00921403
0.00921196
0.00920756
0.00920028
0.00918945
0.00917433
0.00915427
0.00912881
0.00909778
0.00906139
0.00902024
0.00897535
0.00892811
0.00888027
0.00883379
0.00879076
0.00875327
0.00872323
0.00870225
0.00869146
0.00946891
0.00946686
0.00946246
0.00945516
0.00944424
0.00942893
0.00940854
0.00938258
0.00935088
0.00931361
0.00927142
0.00922532
0.00917677
0.00912755
0.0090797
0.00903539
0.00899675
0.00896579
0.00894415
0.00893302
0.00959945
0.0095974
0.009593
0.0095857
0.00957474
0.00955933
0.00953878
0.00951257
0.00948051
0.0094428
0.00940007
0.00935336
0.00930413
0.00925421
0.00920566
0.00916068
0.00912145
0.00909001
0.00906804
0.00905673
0.00153892
0.00151853
0.00150024
0.0014893
0.00147925
0.00147056
0.00146303
0.00145536
0.00144889
0.00144143
0.00143377
0.00142574
0.00141866
0.00141382
0.00141047
0.00140804
0.00140796
0.00141191
0.00142383
0.00144011
0.00157968
0.00152773
0.00149943
0.00149455
0.00148276
0.0014729
0.00146642
0.00145749
0.00145413
0.0014458
0.00143773
0.00142815
0.00142023
0.00141735
0.00141547
0.00141151
0.00141038
0.001412
0.00143218
0.00147611
0.00173655
0.00168188
0.00165164
0.00164714
0.00163561
0.00162749
0.00162124
0.00161047
0.00160599
0.00159713
0.0015903
0.00157968
0.00156971
0.00156524
0.00156272
0.00155959
0.00155742
0.0015563
0.00157619
0.00162655
0.0020293
0.00201008
0.00199199
0.00198207
0.00197316
0.00196709
0.00195945
0.0019487
0.00193934
0.00193013
0.00192298
0.00191234
0.00190095
0.00189195
0.00188575
0.00188281
0.00187948
0.00187769
0.00188597
0.00190622
0.00238444
0.00237663
0.00236712
0.00235884
0.00235074
0.00234275
0.00233402
0.00232414
0.00231387
0.00230307
0.00229204
0.0022802
0.00226838
0.00225765
0.00224846
0.0022411
0.00223552
0.00223265
0.00223417
0.00223872
0.0027922
0.00278821
0.00278215
0.00277528
0.00276765
0.00275923
0.00274977
0.00273917
0.00272757
0.00271505
0.00270181
0.00268805
0.0026743
0.00266122
0.00264932
0.00263909
0.00263096
0.00262547
0.002623
0.00262276
0.00325677
0.00325414
0.00324952
0.00324342
0.00323598
0.00322719
0.00321696
0.00320526
0.00319215
0.00317776
0.00316236
0.0031463
0.0031301
0.00311437
0.00309972
0.00308675
0.00307601
0.003068
0.00306297
0.00306072
0.00377866
0.00377654
0.00377249
0.00376669
0.00375917
0.00374989
0.00373877
0.00372579
0.003711
0.00369457
0.00367682
0.00365817
0.0036392
0.00362057
0.00360299
0.00358717
0.00357379
0.00356343
0.00355645
0.003553
0.00435509
0.00435315
0.00434929
0.00434351
0.00433573
0.00432583
0.00431371
0.00429932
0.00428271
0.00426408
0.00424377
0.00422229
0.00420027
0.00417848
0.00415776
0.00413895
0.00412285
0.00411018
0.00410148
0.00409706
0.00497983
0.00497794
0.00497409
0.00496818
0.00496003
0.00494945
0.00493626
0.00492038
0.00490184
0.00488087
0.00485782
0.00483329
0.004808
0.00478283
0.00475876
0.00473677
0.00471785
0.00470285
0.00469246
0.00468715
0.00564299
0.00564109
0.0056372
0.00563111
0.00562255
0.00561125
0.00559696
0.00557954
0.00555902
0.00553559
0.00550969
0.00548195
0.00545321
0.00542448
0.00539687
0.00537157
0.0053497
0.00533229
0.00532019
0.00531399
0.00633094
0.00632903
0.00632508
0.0063188
0.00630984
0.00629784
0.00628246
0.00626351
0.00624098
0.00621507
0.00618624
0.0061552
0.0061229
0.00609048
0.00605923
0.00603049
0.00600558
0.00598571
0.00597186
0.00596476
0.00702649
0.00702458
0.00702058
0.00701414
0.00700483
0.00699217
0.00697576
0.00695533
0.00693083
0.00690245
0.0068707
0.00683634
0.00680045
0.00676431
0.00672937
0.00669715
0.00666917
0.0066468
0.00663121
0.00662319
0.0077093
0.0077074
0.00770338
0.00769684
0.00768723
0.007674
0.00765664
0.00763482
0.00760844
0.00757769
0.0075431
0.00750552
0.00746611
0.00742631
0.00738773
0.00735208
0.00732107
0.00729624
0.00727891
0.00727
0.0083567
0.00835483
0.00835083
0.00834423
0.00833439
0.00832068
0.00830248
0.0082794
0.00825129
0.00821833
0.00818108
0.00814046
0.00809772
0.00805444
0.0080124
0.00797348
0.00793957
0.0079124
0.00789341
0.00788365
0.00894485
0.00894302
0.00893906
0.00893244
0.00892246
0.00890835
0.00888944
0.00886527
0.00883563
0.0088007
0.00876105
0.00871767
0.00867191
0.00862547
0.00858026
0.00853835
0.00850179
0.00847247
0.00845196
0.00844141
0.00945017
0.00944838
0.00944449
0.00943789
0.0094278
0.0094134
0.00939392
0.00936884
0.00933791
0.00930131
0.00925963
0.00921388
0.00916553
0.00911636
0.00906843
0.00902393
0.00898507
0.00895388
0.00893206
0.00892083
0.00985101
0.00984927
0.00984543
0.00983886
0.00982872
0.00981411
0.0097942
0.00976842
0.00973649
0.00969858
0.00965528
0.00960767
0.00955726
0.00950592
0.00945581
0.00940926
0.00936857
0.00933589
0.00931301
0.00930124
0.0101293
0.0101275
0.0101238
0.0101172
0.0101071
0.0100923
0.0100721
0.0100459
0.0100133
0.00997443
0.00993002
0.00988112
0.00982927
0.00977642
0.0097248
0.00967681
0.00963484
0.00960112
0.00957751
0.00956535
0.0102719
0.0102702
0.0102664
0.0102599
0.0102497
0.0102349
0.0102146
0.0101881
0.0101551
0.0101158
0.0100708
0.0100213
0.00996868
0.00991506
0.00986266
0.00981393
0.0097713
0.00973704
0.00971306
0.00970071
0.0016963
0.00167693
0.0016591
0.00164841
0.00163885
0.00163089
0.00162332
0.0016148
0.00160737
0.0015994
0.0015917
0.0015829
0.00157451
0.00156832
0.00156404
0.00156124
0.00156014
0.00156246
0.00157316
0.00158962
0.00174082
0.00169178
0.00166194
0.00165576
0.00164478
0.00163845
0.00163229
0.00162063
0.00161477
0.00160618
0.00160102
0.00159053
0.0015797
0.00157406
0.00157133
0.00157003
0.001568
0.001566
0.00158435
0.00163335
0.00191762
0.00186459
0.0018353
0.00183107
0.00181981
0.00181142
0.00180481
0.00179383
0.00178878
0.00177921
0.00177129
0.00175979
0.00174901
0.00174356
0.00173988
0.00173543
0.0017321
0.00173015
0.00174893
0.00179712
0.00223416
0.00220955
0.00219417
0.00218783
0.00217815
0.00216717
0.00215862
0.00215034
0.00214333
0.00213272
0.00211977
0.00210806
0.00209821
0.0020907
0.00208327
0.00207405
0.00206918
0.00206923
0.00207812
0.00209281
0.00261666
0.00260822
0.00259935
0.00259183
0.00258359
0.00257464
0.00256542
0.00255556
0.00254513
0.00253332
0.00252047
0.00250743
0.00249488
0.00248335
0.00247277
0.00246329
0.00245636
0.00245285
0.00245366
0.00245693
0.00306404
0.00306005
0.00305422
0.00304756
0.00303987
0.0030311
0.00302123
0.00301014
0.00299787
0.00298433
0.00296979
0.00295471
0.00293964
0.00292517
0.00291176
0.00289993
0.00289043
0.00288387
0.00288054
0.0028797
0.0035794
0.00357684
0.00357233
0.0035663
0.00355879
0.00354974
0.00353908
0.00352674
0.00351277
0.00349725
0.00348048
0.00346289
0.00344505
0.00342761
0.00341121
0.00339654
0.00338429
0.00337503
0.00336908
0.00336632
0.00416333
0.00416126
0.0041573
0.00415154
0.00414396
0.00413444
0.00412286
0.00410917
0.00409338
0.00407567
0.00405636
0.00403592
0.00401499
0.0039943
0.00397465
0.00395686
0.00394173
0.00392992
0.00392191
0.00391791
0.00481289
0.00481101
0.00480726
0.00480155
0.00479374
0.00478363
0.00477105
0.00475589
0.00473818
0.00471808
0.00469596
0.00467238
0.00464804
0.00462381
0.00460062
0.00457947
0.00456128
0.00454691
0.00453699
0.00453195
0.00552128
0.00551949
0.00551581
0.00551005
0.00550195
0.00549121
0.00547758
0.00546089
0.00544113
0.00541849
0.00539336
0.00536638
0.00533836
0.00531029
0.00528329
0.00525852
0.00523711
0.00522007
0.00520824
0.00520218
0.00627751
0.00627576
0.00627212
0.00626629
0.0062579
0.00624654
0.00623186
0.00621361
0.00619176
0.00616647
0.00613818
0.00610761
0.00607567
0.00604354
0.00601248
0.00598387
0.00595905
0.00593922
0.00592541
0.00591831
0.00706614
0.00706445
0.00706086
0.007055
0.00704637
0.00703444
0.00701875
0.00699897
0.00697501
0.00694703
0.0069155
0.00688121
0.00684522
0.00680884
0.00677355
0.00674094
0.00671255
0.00668983
0.00667397
0.00666581
0.00786741
0.00786579
0.0078623
0.00785646
0.00784766
0.00783525
0.00781864
0.0077974
0.00777139
0.00774075
0.00770598
0.00766795
0.00762785
0.00758715
0.00754755
0.00751084
0.00747881
0.00745313
0.00743517
0.00742594
0.00865758
0.00865606
0.00865272
0.00864698
0.00863811
0.00862532
0.0086079
0.00858532
0.00855736
0.00852416
0.00848625
0.00844455
0.0084004
0.00835544
0.00831156
0.00827078
0.00823514
0.00820651
0.00818646
0.00817615
0.00940989
0.00940849
0.00940534
0.00939977
0.00939091
0.00937786
0.00935975
0.00933598
0.00930625
0.00927067
0.0092298
0.00918464
0.00913664
0.00908761
0.00903962
0.00899494
0.00895581
0.00892434
0.00890229
0.00889093
0.0100959
0.0100946
0.0100917
0.0100863
0.0100775
0.0100643
0.0100457
0.0100209
0.00998957
0.00995187
0.00990833
0.00986003
0.00980853
0.00975577
0.00970402
0.00965575
0.00961341
0.00957932
0.0095554
0.00954308
0.0106871
0.0106859
0.0106832
0.0106781
0.0106694
0.0106561
0.0106371
0.0106115
0.0105789
0.0105394
0.0104935
0.0104426
0.010388
0.010332
0.010277
0.0102256
0.0101805
0.0101441
0.0101186
0.0101054
0.0111572
0.0111562
0.0111537
0.0111488
0.0111402
0.0111269
0.0111075
0.0110813
0.0110477
0.0110068
0.0109592
0.010906
0.0108491
0.0107905
0.0107329
0.010679
0.0106317
0.0105935
0.0105666
0.0105528
0.0114842
0.0114832
0.0114809
0.0114761
0.0114677
0.0114543
0.0114348
0.0114081
0.0113738
0.011332
0.0112831
0.0112285
0.0111699
0.0111095
0.0110501
0.0109945
0.0109455
0.010906
0.0108783
0.010864
0.0116519
0.011651
0.0116487
0.011644
0.0116357
0.0116224
0.0116027
0.0115758
0.0115412
0.0114988
0.0114493
0.011394
0.0113345
0.0112732
0.0112128
0.0111563
0.0111066
0.0110664
0.0110382
0.0110236
0.00195335
0.00194243
0.00193015
0.0019205
0.00191174
0.00190363
0.0018955
0.00188678
0.00187813
0.00186906
0.0018598
0.00185004
0.00184063
0.00183262
0.00182618
0.00182134
0.00181851
0.00181889
0.00182425
0.00183185
0.00203724
0.00201946
0.00200373
0.00199452
0.00198555
0.0019776
0.00196959
0.00196022
0.00195168
0.0019423
0.00193304
0.00192255
0.00191229
0.00190406
0.0018976
0.00189256
0.00188911
0.00188877
0.00189661
0.00191117
0.00223047
0.00220572
0.00218826
0.00218099
0.00217159
0.00216314
0.00215507
0.002145
0.00213673
0.00212636
0.00211612
0.00210431
0.00209295
0.00208425
0.00207703
0.00207049
0.00206574
0.00206379
0.00207245
0.00209282
0.00255541
0.00254353
0.00253249
0.00252465
0.00251608
0.00250703
0.00249795
0.0024882
0.00247825
0.0024667
0.00245414
0.00244127
0.00242901
0.00241807
0.00240811
0.00239904
0.00239255
0.00238977
0.00239266
0.00239917
0.00297247
0.00296678
0.00295959
0.00295241
0.00294443
0.00293554
0.00292582
0.00291507
0.0029033
0.00289019
0.00287601
0.00286134
0.00284684
0.00283308
0.00282036
0.0028091
0.00280029
0.00279473
0.00279294
0.00279366
0.00347724
0.00347397
0.00346877
0.00346239
0.00345474
0.00344573
0.0034353
0.00342335
0.00340986
0.00339484
0.00337858
0.00336153
0.00334431
0.00332755
0.00331183
0.00329781
0.00328626
0.00327784
0.00327285
0.00327084
0.00406975
0.00406743
0.00406319
0.00405731
0.00404975
0.00404041
0.00402914
0.00401586
0.00400057
0.00398338
0.00396459
0.0039447
0.00392434
0.00390424
0.00388517
0.00386795
0.00385339
0.00384218
0.00383474
0.00383113
0.00474932
0.00474739
0.0047436
0.00473797
0.00473034
0.00472053
0.00470833
0.00469361
0.00467636
0.00465674
0.00463508
0.00461193
0.00458801
0.00456417
0.00454136
0.00452056
0.00450272
0.00448868
0.00447906
0.00447419
0.00551231
0.00551057
0.00550703
0.00550151
0.00549374
0.00548341
0.00547022
0.00545397
0.00543463
0.00541235
0.00538752
0.00536075
0.00533286
0.00530488
0.00527792
0.00525315
0.00523174
0.00521472
0.00520292
0.00519689
0.006351
0.0063494
0.00634604
0.00634061
0.00633271
0.00632187
0.00630769
0.00628987
0.00626834
0.00624323
0.00621497
0.00618426
0.00615205
0.00611953
0.00608802
0.00605892
0.00603364
0.00601344
0.00599936
0.00599213
0.00725274
0.00725128
0.00724812
0.00724283
0.00723486
0.00722359
0.00720847
0.0071891
0.00716532
0.00713727
0.00710541
0.00707051
0.00703367
0.00699628
0.00695987
0.00692611
0.00689667
0.00687306
0.00685656
0.00684807
0.00819941
0.00819811
0.00819522
0.00819018
0.00818226
0.00817067
0.00815472
0.00813386
0.00810786
0.00807683
0.00804125
0.008002
0.00796033
0.0079178
0.00787623
0.00783755
0.0078037
0.00777649
0.00775744
0.00774762
0.00916727
0.00916619
0.00916366
0.00915898
0.00915125
0.0091395
0.00912284
0.00910062
0.00907248
0.0090385
0.0089992
0.00895554
0.00890893
0.00886115
0.00881426
0.00877049
0.00873209
0.00870116
0.00867945
0.00866827
0.0101273
0.0101265
0.0101244
0.0101202
0.0101128
0.0101011
0.0100839
0.0100604
0.0100303
0.00999348
0.00995055
0.00990256
0.00985107
0.00979805
0.00974585
0.00969697
0.00965399
0.0096193
0.00959492
0.00958235
0.0110462
0.0110457
0.0110441
0.0110405
0.0110336
0.0110219
0.0110044
0.0109799
0.010948
0.0109085
0.0108622
0.0108101
0.0107539
0.0106959
0.0106385
0.0105847
0.0105373
0.0104989
0.010472
0.010458
0.0118881
0.0118878
0.0118868
0.0118838
0.0118774
0.011866
0.0118482
0.0118229
0.0117894
0.0117477
0.0116983
0.0116424
0.0115819
0.0115193
0.0114572
0.0113988
0.0113472
0.0113055
0.0112761
0.0112609
0.0126165
0.0126166
0.0126161
0.0126137
0.0126078
0.0125968
0.0125789
0.0125529
0.0125181
0.0124744
0.0124223
0.0123633
0.0122991
0.0122324
0.0121662
0.0121038
0.0120486
0.0120038
0.0119723
0.011956
0.0131977
0.013198
0.0131979
0.0131961
0.0131907
0.0131799
0.013162
0.0131356
0.0130998
0.0130545
0.0130004
0.0129388
0.0128716
0.0128017
0.0127322
0.0126665
0.0126084
0.0125613
0.012528
0.0125108
0.0136028
0.0136033
0.0136035
0.0136021
0.0135971
0.0135866
0.0135686
0.0135419
0.0135054
0.0134591
0.0134036
0.0133401
0.0132709
0.0131987
0.0131269
0.013059
0.0129988
0.01295
0.0129155
0.0128977
0.0138109
0.0138115
0.0138119
0.0138107
0.0138059
0.0137955
0.0137776
0.0137507
0.0137139
0.013667
0.0136107
0.0135464
0.0134761
0.0134028
0.0133297
0.0132606
0.0131994
0.0131497
0.0131146
0.0130965
0.00227855
0.00227264
0.00226457
0.00225656
0.00224853
0.00224033
0.00223166
0.0022223
0.00221242
0.00220194
0.00219101
0.00217977
0.00216878
0.00215869
0.0021499
0.00214272
0.00213761
0.00213524
0.002136
0.00213822
0.00238809
0.00238068
0.00237173
0.00236369
0.00235559
0.00234733
0.00233853
0.00232887
0.00231874
0.00230787
0.00229651
0.00228466
0.00227302
0.0022624
0.0022531
0.00224538
0.0022397
0.00223694
0.00223816
0.00224171
0.0026169
0.00260847
0.00259931
0.00259164
0.0025835
0.00257499
0.00256588
0.00255571
0.00254504
0.00253329
0.00252087
0.00250785
0.00249501
0.00248324
0.00247272
0.00246365
0.00245674
0.00245289
0.00245369
0.00245778
0.00297263
0.00296693
0.00295969
0.00295248
0.00294453
0.00293573
0.00292603
0.00291523
0.00290341
0.00289031
0.00287621
0.00286155
0.00284699
0.00283318
0.00282047
0.00280928
0.00280048
0.00279486
0.00279308
0.00279394
0.0034456
0.00344194
0.00343637
0.0034298
0.00342208
0.00341308
0.00340272
0.00339088
0.00337755
0.0033627
0.0033466
0.00332973
0.0033127
0.00329615
0.00328066
0.00326687
0.00325558
0.00324749
0.00324294
0.00324133
0.00403249
0.00402991
0.00402541
0.00401939
0.0040118
0.0040025
0.00399137
0.00397829
0.00396322
0.00394626
0.00392771
0.00390805
0.00388793
0.00386809
0.00384929
0.00383233
0.00381806
0.00380719
0.00380014
0.00379681
0.00473286
0.00473083
0.00472695
0.0047213
0.00471374
0.00470407
0.00469207
0.00467758
0.00466057
0.00464117
0.0046197
0.00459672
0.00457296
0.00454926
0.00452658
0.00450591
0.00448822
0.00447436
0.00446494
0.00446023
0.00554573
0.005544
0.00554052
0.00553513
0.00552756
0.00551748
0.00550455
0.00548855
0.00546941
0.00544726
0.00542247
0.00539568
0.0053677
0.00533958
0.00531244
0.00528751
0.00526595
0.00524885
0.00523701
0.00523098
0.00646717
0.00646567
0.00646252
0.00645739
0.00644984
0.00643938
0.00642553
0.00640796
0.00638654
0.00636139
0.00633293
0.00630185
0.00626914
0.00623601
0.00620384
0.00617409
0.00614821
0.00612752
0.0061131
0.0061057
0.00748859
0.00748733
0.00748455
0.00747977
0.00747236
0.00746162
0.00744693
0.0074278
0.00740402
0.00737568
0.00734322
0.00730746
0.00726953
0.00723086
0.00719309
0.00715798
0.00712729
0.00710265
0.00708542
0.00707655
0.0085954
0.00859442
0.00859213
0.00858786
0.00858077
0.00856994
0.00855454
0.00853392
0.00850776
0.00847611
0.00843944
0.00839867
0.0083551
0.00831041
0.00826653
0.00822557
0.00818962
0.00816067
0.00814035
0.00812988
0.00976598
0.00976537
0.00976371
0.00976015
0.00975362
0.00974294
0.00972703
0.00970506
0.00967657
0.00964157
0.00960056
0.00955454
0.00950503
0.00945395
0.00940356
0.00935632
0.00931473
0.00928113
0.00925751
0.00924532
0.0109712
0.010971
0.0109702
0.0109676
0.0109618
0.0109516
0.0109354
0.0109122
0.0108816
0.0108433
0.0107979