# vtk DataFile Version 2.0
Pressure 3D1D coupled problem
ASCII
DATASET UNSTRUCTURED_GRID
POINTS 9261 float
0 0 0
0 0 0.1
0 0 0.2
0 0 0.3
0 0 0.4
0 0 0.5
0 0 0.6
0 0 0.7
0 0 0.8
0 0 0.9
0 0 1
0 0 1.1
0 0 1.2
0 0 1.3
0 0 1.4
0 0 1.5
0 0 1.6
0 0 1.7
0 0 1.8
0 0 1.9
0 0 2
0 0.1 0
0 0.1 0.1
0 0.1 0.2
0 0.1 0.3
0 0.1 0.4
0 0.1 0.5
0 0.1 0.6
0 0.1 0.7
0 0.1 0.8
0 0.1 0.9
0 0.1 1
0 0.1 1.1
0 0.1 1.2
0 0.1 1.3
0 0.1 1.4
0 0.1 1.5
0 0.1 1.6
0 0.1 1.7
0 0.1 1.8
0 0.1 1.9
0 0.1 2
0 0.2 0
0 0.2 0.1
0 0.2 0.2
0 0.2 0.3
0 0.2 0.4
0 0.2 0.5
0 0.2 0.6
0 0.2 0.7
0 0.2 0.8
0 0.2 0.9
0 0.2 1
0 0.2 1.1
0 0.2 1.2
0 0.2 1.3
0 0.2 1.4
0 0.2 1.5
0 0.2 1.6
0 0.2 1.7
0 0.2 1.8
0 0.2 1.9
0 0.2 2
0 0.3 0
0 0.3 0.1
0 0.3 0.2
0 0.3 0.3
0 0.3 0.4
0 0.3 0.5
0 0.3 0.6
0 0.3 0.7
0 0.3 0.8
0 0.3 0.9
0 0.3 1
0 0.3 1.1
0 0.3 1.2
0 0.3 1.3
0 0.3 1.4
0 0.3 1.5
0 0.3 1.6
0 0.3 1.7
0 0.3 1.8
0 0.3 1.9
0 0.3 2
0 0.4 0
0 0.4 0.1
0 0.4 0.2
0 0.4 0.3
0 0.4 0.4
0 0.4 0.5
0 0.4 0.6
0 0.4 0.7
0 0.4 0.8
0 0.4 0.9
0 0.4 1
0 0.4 1.1
0 0.4 1.2
0 0.4 1.3
0 0.4 1.4
0 0.4 1.5
0 0.4 1.6
0 0.4 1.7
0 0.4 1.8
0 0.4 1.9
0 0.4 2
0 0.5 0
0 0.5 0.1
0 0.5 0.2
0 0.5 0.3
0 0.5 0.4
0 0.5 0.5
0 0.5 0.6
0 0.5 0.7
0 0.5 0.8
0 0.5 0.9
0 0.5 1
0 0.5 1.1
0 0.5 1.2
0 0.5 1.3
0 0.5 1.4
0 0.5 1.5
0 0.5 1.6
0 0.5 1.7
0 0.5 1.8
0 0.5 1.9
0 0.5 2
0 0.6 0
0 0.6 0.1
0 0.6 0.2
0 0.6 0.3
0 0.6 0.4
0 0.6 0.5
0 0.6 0.6
0 0.6 0.7
0 0.6 0.8
0 0.6 0.9
0 0.6 1
0 0.6 1.1
0 0.6 1.2
0 0.6 1.3
0 0.6 1.4
0 0.6 1.5
0 0.6 1.6
0 0.6 1.7
0 0.6 1.8
0 0.6 1.9
0 0.6 2
0 0.7 0
0 0.7 0.1
0 0.7 0.2
0 0.7 0.3
0 0.7 0.4
0 0.7 0.5
0 0.7 0.6
0 0.7 0.7
0 0.7 0.8
0 0.7 0.9
0 0.7 1
0 0.7 1.1
0 0.7 1.2
0 0.7 1.3
0 0.7 1.4
0 0.7 1.5
0 0.7 1.6
0 0.7 1.7
0 0.7 1.8
0 0.7 1.9
0 0.7 2
0 0.8 0
0 0.8 0.1
0 0.8 0.2
0 0.8 0.3
0 0.8 0.4
0 0.8 0.5
0 0.8 0.6
0 0.8 0.7
0 0.8 0.8
0 0.8 0.9
0 0.8 1
0 0.8 1.1
0 0.8 1.2
0 0.8 1.3
0 0.8 1.4
0 0.8 1.5
0 0.8 1.6
0 0.8 1.7
0 0.8 1.8
0 0.8 1.9
0 0.8 2
0 0.9 0
0 0.9 0.1
0 0.9 0.2
0 0.9 0.3
0 0.9 0.4
0 0.9 0.5
0 0.9 0.6
0 0.9 0.7
0 0.9 0.8
0 0.9 0.9
0 0.9 1
0 0.9 1.1
0 0.9 1.2
0 0.9 1.3
0 0.9 1.4
0 0.9 1.5
0 0.9 1.6
0 0.9 1.7
0 0.9 1.8
0 0.9 1.9
0 0.9 2
0 1 0
0 1 0.1
0 1 0.2
0 1 0.3
0 1 0.4
0 1 0.5
0 1 0.6
0 1 0.7
0 1 0.8
0 1 0.9
0 1 1
0 1 1.1
0 1 1.2
0 1 1.3
0 1 1.4
0 1 1.5
0 1 1.6
0 1 1.7
0 1 1.8
0 1 1.9
0 1 2
0 1.1 0
0 1.1 0.1
0 1.1 0.2
0 1.1 0.3
0 1.1 0.4
0 1.1 0.5
0 1.1 0.6
0 1.1 0.7
0 1.1 0.8
0 1.1 0.9
0 1.1 1
0 1.1 1.1
0 1.1 1.2
0 1.1 1.3
0 1.1 1.4
0 1.1 1.5
0 1.1 1.6
0 1.1 1.7
0 1.1 1.8
0 1.1 1.9
0 1.1 2
0 1.2 0
0 1.2 0.1
0 1.2 0.2
0 1.2 0.3
0 1.2 0.4
0 1.2 0.5
0 1.2 0.6
0 1.2 0.7
0 1.2 0.8
0 1.2 0.9
0 1.2 1
0 1.2 1.1
0 1.2 1.2
0 1.2 1.3
0 1.2 1.4
0 1.2 1.5
0 1.2 1.6
0 1.2 1.7
0 1.2 1.8
0 1.2 1.9
0 1.2 2
0 1.3 0
0 1.3 0.1
0 1.3 0.2
0 1.3 0.3
0 1.3 0.4
0 1.3 0.5
0 1.3 0.6
0 1.3 0.7
0 1.3 0.8
0 1.3 0.9
0 1.3 1
0 1.3 1.1
0 1.3 1.2
0 1.3 1.3
0 1.3 1.4
0 1.3 1.5
0 1.3 1.6
0 1.3 1.7
0 1.3 1.8
0 1.3 1.9
0 1.3 2
0 1.4 0
0 1.4 0.1
0 1.4 0.2
0 1.4 0.3
0 1.4 0.4
0 1.4 0.5
0 1.4 0.6
0 1.4 0.7
0 1.4 0.8
0 1.4 0.9
0 1.4 1
0 1.4 1.1
0 1.4 1.2
0 1.4 1.3
0 1.4 1.4
0 1.4 1.5
0 1.4 1.6
0 1.4 1.7
0 1.4 1.8
0 1.4 1.9
0 1.4 2
0 1.5 0
0 1.5 0.1
0 1.5 0.2
0 1.5 0.3
0 1.5 0.4
0 1.5 0.5
0 1.5 0.6
0 1.5 0.7
0 1.5 0.8
0 1.5 0.9
0 1.5 1
0 1.5 1.1
0 1.5 1.2
0 1.5 1.3
0 1.5 1.4
0 1.5 1.5
0 1.5 1.6
0 1.5 1.7
0 1.5 1.8
0 1.5 1.9
0 1.5 2
0 1.6 0
0 1.6 0.1
0 1.6 0.2
0 1.6 0.3
0 1.6 0.4
0 1.6 0.5
0 1.6 0.6
0 1.6 0.7
0 1.6 0.8
0 1.6 0.9
0 1.6 1
0 1.6 1.1
0 1.6 1.2
0 1.6 1.3
0 1.6 1.4
0 1.6 1.5
0 1.6 1.6
0 1.6 1.7
0 1.6 1.8
0 1.6 1.9
0 1.6 2
0 1.7 0
0 1.7 0.1
0 1.7 0.2
0 1.7 0.3
0 1.7 0.4
0 1.7 0.5
0 1.7 0.6
0 1.7 0.7
0 1.7 0.8
0 1.7 0.9
0 1.7 1
0 1.7 1.1
0 1.7 1.2
0 1.7 1.3
0 1.7 1.4
0 1.7 1.5
0 1.7 1.6
0 1.7 1.7
0 1.7 1.8
0 1.7 1.9
0 1.7 2
0 1.8 0
0 1.8 0.1
0 1.8 0.2
0 1.8 0.3
0 1.8 0.4
0 1.8 0.5
0 1.8 0.6
0 1.8 0.7
0 1.8 0.8
0 1.8 0.9
0 1.8 1
0 1.8 1.1
0 1.8 1.2
0 1.8 1.3
0 1.8 1.4
0 1.8 1.5
0 1.8 1.6
0 1.8 1.7
0 1.8 1.8
0 1.8 1.9
0 1.8 2
0 1.9 0
0 1.9 0.1
0 1.9 0.2
0 1.9 0.3
0 1.9 0.4
0 1.9 0.5
0 1.9 0.6
0 1.9 0.7
0 1.9 0.8
0 1.9 0.9
0 1.9 1
0 1.9 1.1
0 1.9 1.2
0 1.9 1.3
0 1.9 1.4
0 1.9 1.5
0 1.9 1.6
0 1.9 1.7
0 1.9 1.8
0 1.9 1.9
0 1.9 2
0 2 0
0 2 0.1
0 2 0.2
0 2 0.3
0 2 0.4
0 2 0.5
0 2 0.6
0 2 0.7
0 2 0.8
0 2 0.9
0 2 1
0 2 1.1
0 2 1.2
0 2 1.3
0 2 1.4
0 2 1.5
0 2 1.6
0 2 1.7
0 2 1.8
0 2 1.9
0 2 2
0.1 0 0
0.1 0 0.1
0.1 0 0.2
0.1 0 0.3
0.1 0 0.4
0.1 0 0.5
0.1 0 0.6
0.1 0 0.7
0.1 0 0.8
0.1 0 0.9
0.1 0 1
0.1 0 1.1
0.1 0 1.2
0.1 0 1.3
0.1 0 1.4
0.1 0 1.5
0.1 0 1.6
0.1 0 1.7
0.1 0 1.8
0.1 0 1.9
0.1 0 2
0.1 0.1 0
0.1 0.1 0.1
0.1 0.1 0.2
0.1 0.1 0.3
0.1 0.1 0.4
0.1 0.1 0.5
0.1 0.1 0.6
0.1 0.1 0.7
0.1 0.1 0.8
0.1 0.1 0.9
0.1 0.1 1
0.1 0.1 1.1
0.1 0.1 1.2
0.1 0.1 1.3
0.1 0.1 1.4
0.1 0.1 1.5
0.1 0.1 1.6
0.1 0.1 1.7
0.1 0.1 1.8
0.1 0.1 1.9
0.1 0.1 2
0.1 0.2 0
0.1 0.2 0.1
0.1 0.2 0.2
0.1 0.2 0.3
0.1 0.2 0.4
0.1 0.2 0.5
0.1 0.2 0.6
0.1 0.2 0.7
0.1 0.2 0.8
0.1 0.2 0.9
0.1 0.2 1
0.1 0.2 1.1
0.1 0.2 1.2
0.1 0.2 1.3
0.1 0.2 1.4
0.1 0.2 1.5
0.1 0.2 1.6
0.1 0.2 1.7
0.1 0.2 1.8
0.1 0.2 1.9
0.1 0.2 2
0.1 0.3 0
0.1 0.3 0.1
0.1 0.3 0.2
0.1 0.3 0.3
0.1 0.3 0.4
0.1 0.3 0.5
0.1 0.3 0.6
0.1 0.3 0.7
0.1 0.3 0.8
0.1 0.3 0.9
0.1 0.3 1
0.1 0.3 1.1
0.1 0.3 1.2
0.1 0.3 1.3
0.1 0.3 1.4
0.1 0.3 1.5
0.1 0.3 1.6
0.1 0.3 1.7
0.1 0.3 1.8
0.1 0.3 1.9
0.1 0.3 2
0.1 0.4 0
0.1 0.4 0.1
0.1 0.4 0.2
0.1 0.4 0.3
0.1 0.4 0.4
0.1 0.4 0.5
0.1 0.4 0.6
0.1 0.4 0.7
0.1 0.4 0.8
0.1 0.4 0.9
0.1 0.4 1
0.1 0.4 1.1
0.1 0.4 1.2
0.1 0.4 1.3
0.1 0.4 1.4
0.1 0.4 1.5
0.1 0.4 1.6
0.1 0.4 1.7
0.1 0.4 1.8
0.1 0.4 1.9
0.1 0.4 2
0.1 0.5 0
0.1 0.5 0.1
0.1 0.5 0.2
0.1 0.5 0.3
0.1 0.5 0.4
0.1 0.5 0.5
0.1 0.5 0.6
0.1 0.5 0.7
0.1 0.5 0.8
0.1 0.5 0.9
0.1 0.5 1
0.1 0.5 1.1
0.1 0.5 1.2
0.1 0.5 1.3
0.1 0.5 1.4
0.1 0.5 1.5
0.1 0.5 1.6
0.1 0.5 1.7
0.1 0.5 1.8
0.1 0.5 1.9
0.1 0.5 2
0.1 0.6 0
0.1 0.6 0.1
0.1 0.6 0.2
0.1 0.6 0.3
0.1 0.6 0.4
0.1 0.6 0.5
0.1 0.6 0.6
0.1 0.6 0.7
0.1 0.6 0.8
0.1 0.6 0.9
0.1 0.6 1
0.1 0.6 1.1
0.1 0.6 1.2
0.1 0.6 1.3
0.1 0.6 1.4
0.1 0.6 1.5
0.1 0.6 1.6
0.1 0.6 1.7
0.1 0.6 1.8
0.1 0.6 1.9
0.1 0.6 2
0.1 0.7 0
0.1 0.7 0.1
0.1 0.7 0.2
0.1 0.7 0.3
0.1 0.7 0.4
0.1 0.7 0.5
0.1 0.7 0.6
0.1 0.7 0.7
0.1 0.7 0.8
0.1 0.7 0.9
0.1 0.7 1
0.1 0.7 1.1
0.1 0.7 1.2
0.1 0.7 1.3
0.1 0.7 1.4
0.1 0.7 1.5
0.1 0.7 1.6
0.1 0.7 1.7
0.1 0.7 1.8
0.1 0.7 1.9
0.1 0.7 2
0.1 0.8 0
0.1 0.8 0.1
0.1 0.8 0.2
0.1 0.8 0.3
0.1 0.8 0.4
0.1 0.8 0.5
0.1 0.8 0.6
0.1 0.8 0.7
0.1 0.8 0.8
0.1 0.8 0.9
0.1 0.8 1
0.1 0.8 1.1
0.1 0.8 1.2
0.1 0.8 1.3
0.1 0.8 1.4
0.1 0.8 1.5
0.1 0.8 1.6
0.1 0.8 1.7
0.1 0.8 1.8
0.1 0.8 1.9
0.1 0.8 2
0.1 0.9 0
0.1 0.9 0.1
0.1 0.9 0.2
0.1 0.9 0.3
0.1 0.9 0.4
0.1 0.9 0.5
0.1 0.9 0.6
0.1 0.9 0.7
0.1 0.9 0.8
0.1 0.9 0.9
0.1 0.9 1
0.1 0.9 1.1
0.1 0.9 1.2
0.1 0.9 1.3
0.1 0.9 1.4
0.1 0.9 1.5
0.1 0.9 1.6
0.1 0.9 1.7
0.1 0.9 1.8
0.1 0.9 1.9
0.1 0.9 2
0.1 1 0
0.1 1 0.1
0.1 1 0.2
0.1 1 0.3
0.1 1 0.4
0.1 1 0.5
0.1 1 0.6
0.1 1 0.7
0.1 1 0.8
0.1 1 0.9
0.1 1 1
0.1 1 1.1
0.1 1 1.2
0.1 1 1.3
0.1 1 1.4
0.1 1 1.5
0.1 1 1.6
0.1 1 1.7
0.1 1 1.8
0.1 1 1.9
0.1 1 2
0.1 1.1 0
0.1 1.1 0.1
0.1 1.1 0.2
0.1 1.1 0.3
0.1 1.1 0.4
0.1 1.1 0.5
0.1 1.1 0.6
0.1 1.1 0.7
0.1 1.1 0.8
0.1 1.1 0.9
0.1 1.1 1
0.1 1.1 1.1
0.1 1.1 1.2
0.1 1.1 1.3
0.1 1.1 1.4
0.1 1.1 1.5
0.1 1.1 1.6
0.1 1.1 1.7
0.1 1.1 1.8
0.1 1.1 1.9
0.1 1.1 2
0.1 1.2 0
0.1 1.2 0.1
0.1 1.2 0.2
0.1 1.2 0.3
0.1 1.2 0.4
0.1 1.2 0.5
0.1 1.2 0.6
0.1 1.2 0.7
0.1 1.2 0.8
0.1 1.2 0.9
0.1 1.2 1
0.1 1.2 1.1
0.1 1.2 1.2
0.1 1.2 1.3
0.1 1.2 1.4
0.1 1.2 1.5
0.1 1.2 1.6
0.1 1.2 1.7
0.1 1.2 1.8
0.1 1.2 1.9
0.1 1.2 2
0.1 1.3 0
0.1 1.3 0.1
0.1 1.3 0.2
0.1 1.3 0.3
0.1 1.3 0.4
0.1 1.3 0.5
0.1 1.3 0.6
0.1 1.3 0.7
0.1 1.3 0.8
0.1 1.3 0.9
0.1 1.3 1
0.1 1.3 1.1
0.1 1.3 1.2
0.1 1.3 1.3
0.1 1.3 1.4
0.1 1.3 1.5
0.1 1.3 1.6
0.1 1.3 1.7
0.1 1.3 1.8
0.1 1.3 1.9
0.1 1.3 2
0.1 1.4 0
0.1 1.4 0.1
0.1 1.4 0.2
0.1 1.4 0.3
0.1 1.4 0.4
0.1 1.4 0.5
0.1 1.4 0.6
0.1 1.4 0.7
0.1 1.4 0.8
0.1 1.4 0.9
0.1 1.4 1
0.1 1.4 1.1
0.1 1.4 1.2
0.1 1.4 1.3
0.1 1.4 1.4
0.1 1.4 1.5
0.1 1.4 1.6
0.1 1.4 1.7
0.1 1.4 1.8
0.1 1.4 1.9
0.1 1.4 2
0.1 1.5 0
0.1 1.5 0.1
0.1 1.5 0.2
0.1 1.5 0.3
0.1 1.5 0.4
0.1 1.5 0.5
0.1 1.5 0.6
0.1 1.5 0.7
0.1 1.5 0.8
0.1 1.5 0.9
0.1 1.5 1
0.1 1.5 1.1
0.1 1.5 1.2
0.1 1.5 1.3
0.1 1.5 1.4
0.1 1.5 1.5
0.1 1.5 1.6
0.1 1.5 1.7
0.1 1.5 1.8
0.1 1.5 1.9
0.1 1.5 2
0.1 1.6 0
0.1 1.6 0.1
0.1 1.6 0.2
0.1 1.6 0.3
0.1 1.6 0.4
0.1 1.6 0.5
0.1 1.6 0.6
0.1 1.6 0.7
0.1 1.6 0.8
0.1 1.6 0.9
0.1 1.6 1
0.1 1.6 1.1
0.1 1.6 1.2
0.1 1.6 1.3
0.1 1.6 1.4
0.1 1.6 1.5
0.1 1.6 1.6
0.1 1.6 1.7
0.1 1.6 1.8
0.1 1.6 1.9
0.1 1.6 2
0.1 1.7 0
0.1 1.7 0.1
0.1 1.7 0.2
0.1 1.7 0.3
0.1 1.7 0.4
0.1 1.7 0.5
0.1 1.7 0.6
0.1 1.7 0.7
0.1 1.7 0.8
0.1 1.7 0.9
0.1 1.7 1
0.1 1.7 1.1
0.1 1.7 1.2
0.1 1.7 1.3
0.1 1.7 1.4
0.1 1.7 1.5
0.1 1.7 1.6
0.1 1.7 1.7
0.1 1.7 1.8
0.1 1.7 1.9
0.1 1.7 2
0.1 1.8 0
0.1 1.8 0.1
0.1 1.8 0.2
0.1 1.8 0.3
0.1 1.8 0.4
0.1 1.8 0.5
0.1 1.8 0.6
0.1 1.8 0.7
0.1 1.8 0.8
0.1 1.8 0.9
0.1 1.8 1
0.1 1.8 1.1
0.1 1.8 1.2
0.1 1.8 1.3
0.1 1.8 1.4
0.1 1.8 1.5
0.1 1.8 1.6
0.1 1.8 1.7
0.1 1.8 1.8
0.1 1.8 1.9
0.1 1.8 2
0.1 1.9 0
0.1 1.9 0.1
0.1 1.9 0.2
0.1 1.9 0.3
0.1 1.9 0.4
0.1 1.9 0.5
0.1 1.9 0.6
0.1 1.9 0.7
0.1 1.9 0.8
0.1 1.9 0.9
0.1 1.9 1
0.1 1.9 1.1
0.1 1.9 1.2
0.1 1.9 1.3
0.1 1.9 1.4
0.1 1.9 1.5
0.1 1.9 1.6
0.1 1.9 1.7
0.1 1.9 1.8
0.1 1.9 1.9
0.1 1.9 2
0.1 2 0
0.1 2 0.1
0.1 2 0.2
0.1 2 0.3
0.1 2 0.4
0.1 2 0.5
0.1 2 0.6
0.1 2 0.7
0.1 2 0.8
0.1 2 0.9
0.1 2 1
0.1 2 1.1
0.1 2 1.2
0.1 2 1.3
0.1 2 1.4
0.1 2 1.5
0.1 2 1.6
0.1 2 1.7
0.1 2 1.8
0.1 2 1.9
0.1 2 2
0.2 0 0
0.2 0 0.1
0.2 0 0.2
0.2 0 0.3
0.2 0 0.4
0.2 0 0.5
0.2 0 0.6
0.2 0 0.7
0.2 0 0.8
0.2 0 0.9
0.2 0 1
0.2 0 1.1
0.2 0 1.2
0.2 0 1.3
0.2 0 1.4
0.2 0 1.5
0.2 0 1.6
0.2 0 1.7
0.2 0 1.8
0.2 0 1.9
0.2 0 2
0.2 0.1 0
0.2 0.1 0.1
0.2 0.1 0.2
0.2 0.1 0.3
0.2 0.1 0.4
0.2 0.1 0.5
0.2 0.1 0.6
0.2 0.1 0.7
0.2 0.1 0.8
0.2 0.1 0.9
0.2 0.1 1
0.2 0.1 1.1
0.2 0.1 1.2
0.2 0.1 1.3
0.2 0.1 1.4
0.2 0.1 1.5
0.2 0.1 1.6
0.2 0.1 1.7
0.2 0.1 1.8
0.2 0.1 1.9
0.2 0.1 2
0.2 0.2 0
0.2 0.2 0.1
0.2 0.2 0.2
0.2 0.2 0.3
0.2 0.2 0.4
0.2 0.2 0.5
0.2 0.2 0.6
0.2 0.2 0.7
0.2 0.2 0.8
0.2 0.2 0.9
0.2 0.2 1
0.2 0.2 1.1
0.2 0.2 1.2
0.2 0.2 1.3
0.2 0.2 1.4
0.2 0.2 1.5
0.2 0.2 1.6
0.2 0.2 1.7
0.2 0.2 1.8
0.2 0.2 1.9
[...]
CELL_DATA 8000
SCALARS Phi_sigma_(3D) float 1
LOOKUP_TABLE default
0.000119602
0.000118396
0.000117018
0.000115876
0.000114784
0.000113708
0.000112621
0.000111478
0.000110309
0.000109048
0.000107727
0.000106379
0.000105094
0.000103957
0.000102972
0.000102154
0.000101606
0.000101461
0.000101843
0.000102457
0.000127839
0.000126027
0.000124351
0.000123233
0.00012209
0.000120959
0.000119834
0.00011861
0.000117411
0.000116063
0.000114648
0.000113178
0.000111781
0.000110582
0.000109536
0.000108621
0.000107981
0.000107774
0.00010834
0.000109426
0.000147208
0.000145337
0.000143606
0.000142458
0.000141262
0.000140072
0.000138826
0.000137409
0.000136004
0.00013445
0.000132846
0.000131135
0.000129467
0.000128006
0.000126734
0.000125632
0.000124792
0.000124382
0.000124839
0.000125975
0.000178936
0.000177815
0.00017646
0.00017525
0.000174002
0.000172697
0.000171223
0.00016953
0.000167737
0.000165835
0.000163876
0.000161796
0.000159715
0.000157786
0.000156077
0.000154631
0.000153461
0.000152712
0.000152636
0.000153083
0.000221102
0.00022041
0.000219366
0.000218173
0.000216812
0.000215264
0.000213485
0.000211463
0.000209248
0.000206868
0.000204367
0.000201772
0.000199178
0.000196702
0.000194434
0.000192454
0.000190828
0.000189663
0.000189062
0.000188933
0.000273294
0.000272768
0.000271841
0.000270605
0.000269074
0.000267241
0.000265095
0.000262641
0.000259911
0.000256948
0.000253809
0.000250563
0.000247308
0.000244161
0.000241232
0.000238628
0.000236451
0.000234801
0.000233747
0.00023327
0.000336051
0.000335559
0.000334615
0.000333257
0.000331492
0.000329318
0.000326732
0.000323749
0.000320402
0.000316744
0.00031285
0.000308813
0.000304751
0.000300795
0.000297085
0.000293756
0.000290939
0.000288749
0.000287272
0.000286538
0.000409953
0.000409429
0.000408391
0.000406844
0.000404783
0.000402202
0.000399099
0.000395492
0.000391419
0.000386946
0.000382164
0.000377191
0.00037217
0.00036726
0.000362632
0.000358459
0.000354903
0.000352109
0.000350191
0.000349219
0.000495231
0.000494643
0.000493462
0.000491675
0.000489264
0.000486213
0.000482516
0.000478191
0.000473284
0.000467871
0.000462063
0.000456005
0.00044987
0.000443852
0.000438162
0.000433013
0.00042861
0.000425134
0.000422733
0.000421508
0.000591549
0.00059088
0.000589527
0.000587462
0.000584655
0.000581076
0.000576714
0.000571585
0.000565738
0.000559265
0.000552297
0.000545008
0.000537606
0.000530328
0.00052343
0.000517172
0.000511808
0.000507563
0.000504623
0.000503119
0.000697833
0.000697073
0.000695529
0.000693162
0.000689923
0.00068577
0.000680683
0.000674673
0.000667795
0.000660154
0.000651904
0.000643251
0.000634442
0.000625763
0.00061752
0.000610028
0.000603594
0.000598494
0.000594957
0.000593147
0.000812146
0.00081129
0.000809546
0.00080686
0.000803167
0.000798409
0.000792553
0.000785604
0.000777623
0.000768727
0.000759097
0.000748971
0.000738641
0.000728442
0.000718739
0.000709906
0.00070231
0.000696281
0.000692096
0.000689952
0.000931618
0.000930666
0.00092872
0.000925712
0.000921558
0.00091618
0.000909531
0.000901611
0.000892483
0.000882279
0.000871204
0.000859533
0.000847604
0.000835806
0.000824563
0.000814313
0.000805488
0.000798477
0.000793606
0.00079111
0.00105247
0.00105142
0.00104928
0.00104596
0.00104135
0.00103536
0.00102792
0.00101903
0.00100874
0.00099722
0.000984683
0.000971444
0.000957888
0.00094446
0.000931646
0.000919949
0.000909866
0.00090185
0.000896277
0.00089342
0.00117012
0.00116898
0.00116666
0.00116304
0.001158
0.00115143
0.00114323
0.0011334
0.001122
0.00110919
0.00109523
0.00108046
0.00106532
0.00105029
0.00103594
0.00102282
0.0010115
0.00100249
0.000996226
0.000993013
0.00127945
0.00127824
0.00127575
0.00127187
0.00126644
0.00125933
0.00125044
0.00123975
0.00122731
0.00121332
0.00119803
0.00118184
0.00116521
0.00114869
0.00113289
0.00111844
0.00110596
0.00109602
0.00108911
0.00108556
0.00137516
0.00137389
0.00137127
0.00136716
0.0013614
0.00135383
0.00134433
0.00133289
0.00131956
0.00130452
0.00128807
0.00127063
0.00125269
0.00123486
0.00121779
0.00120217
0.00118867
0.00117791
0.00117042
0.00116658
0.00145221
0.00145089
0.00144816
0.00144387
0.00143785
0.00142991
0.00141994
0.00140789
0.00139384
0.00137796
0.00136059
0.00134213
0.00132314
0.00130425
0.00128616
0.00126958
0.00125525
0.00124383
0.00123587
0.00123179
0.00150626
0.0015049
0.0015021
0.00149769
0.00149148
0.00148329
0.00147299
0.00146052
0.00144596
0.0014295
0.00141147
0.0013923
0.00137258
0.00135294
0.00133412
0.00131687
0.00130196
0.00129007
0.00128178
0.00127753
0.00153413
0.00153276
0.00152991
0.00152544
0.00151914
0.00151082
0.00150034
0.00148766
0.00147284
0.00145608
0.00143771
0.00141818
0.00139807
0.00137805
0.00135885
0.00134126
0.00132604
0.00131391
0.00130546
0.00130112
0.000127956
0.000126171
0.00012451
0.000123393
0.000122254
0.000121129
0.000120004
0.000118776
0.000117571
0.000116222
0.000114811
0.000113341
0.000111939
0.000110733
0.000109685
0.000108772
0.000108131
0.000107915
0.000108466
0.000109538
0.000134889
0.000130356
0.000127803
0.000127186
0.00012587
0.000124617
0.000123549
0.000122174
0.000121192
0.000119726
0.000118237
0.00011659
0.000115071
0.00011398
0.000113011
0.000111942
0.000111187
0.000110765
0.00011196
0.000115219
0.000155419
0.000150494
0.000147679
0.000147049
0.00014566
0.000144452
0.000143287
0.000141609
0.000140389
0.000138706
0.000137145
0.000135222
0.000133344
0.000131949
0.000130767
0.000129614
0.000128648
0.0001279
0.000129038
0.000132882
0.000192121
0.000190303
0.000188466
0.000187222
0.00018591
0.000184697
0.000183182
0.000181238
0.000179293
0.00017726
0.000175336
0.000173053
0.000170691
0.000168563
0.000166746
0.000165322
0.000164011
0.000163014
0.000163086
0.000164445
0.000239262
0.00023841
0.000237238
0.000235989
0.000234552
0.000232921
0.000231024
0.000228837
0.000226448
0.000223872
0.000221173
0.000218341
0.000215497
0.000212786
0.000210303
0.000208131
0.00020632
0.000205001
0.000204363
0.000204341
0.000296849
0.000296275
0.000295288
0.000293985
0.000292359
0.000290401
0.000288096
0.000285447
0.000282491
0.00027927
0.000275848
0.000272298
0.000268732
0.000265275
0.000262049
0.000259172
0.000256756
0.000254915
0.000253743
0.000253225
0.000366237
0.000365714
0.000364717
0.000363278
0.000361396
0.000359064
0.000356277
0.000353048
0.000349412
0.000345423
0.000341164
0.000336737
0.000332271
0.000327913
0.000323815
0.000320129
0.000317001
0.000314564
0.000312915
0.000312097
0.000448356
0.000447802
0.000446702
0.000445057
0.000442853
0.000440078
0.000436726
0.00043281
0.000428372
0.000423479
0.000418232
0.00041276
0.000407221
0.000401792
0.000396663
0.000392028
0.00038807
0.000384956
0.000382814
0.000381727
0.000543629
0.000543007
0.000541755
0.000539851
0.000537268
0.000533981
0.000529977
0.000525271
0.000519907
0.000513967
0.000507573
0.000500883
0.000494089
0.00048741
0.00048108
0.00047534
0.000470421
0.000466533
0.000463844
0.000462471
0.000651807
0.000651099
0.000649664
0.000647464
0.000644455
0.000640594
0.000635861
0.000630265
0.000623856
0.00061673
0.000609032
0.000600953
0.000592725
0.000584614
0.000576908
0.000569903
0.000563887
0.000559118
0.000555813
0.000554121
0.000771792
0.00077099
0.000769356
0.000766834
0.000763362
0.000758878
0.000753349
0.000746777
0.000739217
0.000730778
0.000721633
0.000712006
0.000702177
0.000692465
0.000683218
0.000674795
0.000667547
0.000661794
0.000657799
0.000655752
0.000901482
0.000900582
0.00089874
0.000895884
0.000891926
0.000886785
0.00088041
0.000872797
0.000864
0.000854148
0.000843436
0.000832131
0.00082056
0.000809103
0.000798173
0.0007882
0.000779605
0.000772772
0.000768023
0.000765589
0.00103767
0.00103667
0.00103462
0.00103143
0.00102698
0.00102117
0.00101392
0.00100523
0.000995142
0.000983808
0.000971451
0.000958377
0.000944967
0.000931663
0.000918948
0.000907328
0.000897299
0.000889318
0.000883766
0.000880918
0.00117603
0.00117494
0.00117269
0.00116917
0.00116424
0.00115777
0.00114965
0.00113987
0.00112849
0.00111566
0.00110163
0.00108675
0.00107146
0.00105627
0.00104172
0.00102841
0.00101691
0.00100774
0.00100136
0.000998089
0.00131127
0.0013101
0.00130767
0.00130385
0.00129846
0.00129136
0.00128241
0.00127158
0.00125894
0.00124464
0.00122898
0.00121234
0.0011952
0.00117815
0.0011618
0.00114681
0.00113385
0.00112352
0.00111632
0.00111262
0.00143741
0.00143616
0.00143357
0.00142948
0.00142369
0.001416
0.00140629
0.0013945
0.00138069
0.00136503
0.00134784
0.00132955
0.00131069
0.00129188
0.00127384
0.00125728
0.00124295
0.00123151
0.00122354
0.00121944
0.00154816
0.00154685
0.00154413
0.00153981
0.00153367
0.0015255
0.00151512
0.00150249
0.00148766
0.00147081
0.00145228
0.00143254
0.00141215
0.00139181
0.00137226
0.00135432
0.00133877
0.00132635
0.00131769
0.00131324
0.00163753
0.00163617
0.00163335
0.00162885
0.00162244
0.00161387
0.00160297
0.00158967
0.00157401
0.00155621
0.0015366
0.00151568
0.00149406
0.00147247
0.00145171
0.00143264
0.0014161
0.00140288
0.00139366
0.00138892
0.00170033
0.00169894
0.00169605
0.00169143
0.00168483
0.00167599
0.00166472
0.00165094
0.00163471
0.00161624
0.00159587
0.00157412
0.00155164
0.00152917
0.00150755
0.00148768
0.00147044
0.00145666
0.00144705
0.00144211
0.00173275
0.00173135
0.00172841
0.00172374
0.00171704
0.00170806
0.0016966
0.00168258
0.00166606
0.00164723
0.00162647
0.0016043
0.00158136
0.00155844
0.00153638
0.00151609
0.00149849
0.00148443
0.00147461
0.00146956
0.000147545
0.000145801
0.000144118
0.000142957
0.000141775
0.000140612
0.000139366
0.000137931
0.000136499
0.000134945
0.00013336
0.00013165
0.000129963
0.000128477
0.000127195
0.000126112
0.000125269
0.000124833
0.000125236
0.000126313
0.000155786
0.000151364
0.000148584
0.000147802
0.000146461
0.000145406
0.000144245
0.000142485
0.000141139
0.000139475
0.000138052
0.000136132
0.000134175
0.000132677
0.000131471
0.000130464
0.000129504
0.000128682
0.000129692
0.000133422
0.000180275
0.000175324
0.00017249
0.00017183
0.000170353
0.000168988
0.000167647
0.000165776
0.000164329
0.000162371
0.00016049
0.000158252
0.00015607
0.000154374
0.000152887
0.000151426
0.000150199
0.00014925
0.000150247
0.000153983
0.000222737
0.000220313
0.000218654
0.000217668
0.000216155
0.000214315
0.000212534
0.000210618
0.000208665
0.000206239
0.000203492
0.00020082
0.000198308
0.000196032
0.000193835
0.0001916
0.000189945
0.000188952
0.000188986
0.000189835
0.000277389
0.000276429
0.000275237
0.000273948
0.000272349
0.000270439
0.000268269
0.000265816
0.000263108
0.000260101
0.000256869
0.000253545
0.000250245
0.00024708
0.000244112
0.000241421
0.00023921
0.000237615
0.000236767
0.000236564
0.000345387
0.000344767
0.000343712
0.000342293
0.000340478
0.000338252
0.000335618
0.00033258
0.000329166
0.00032541
0.000321389
0.000317214
0.000313011
0.00030892
0.000305072
0.000301611
0.000298693
0.000296457
0.000295003
0.000294326
0.00042833
0.000427761
0.000426668
0.000425071
0.000422955
0.000420303
0.000417107
0.000413378
0.000409149
0.000404481
0.000399468
0.000394237
0.00038894
0.00038375
0.000378848
0.000374418
0.000370645
0.000367691
0.000365679
0.000364671
0.00052751
0.0005269
0.000525682
0.000523842
0.000521352
0.000518185
0.000514325
0.000509781
0.000504592
0.000498837
0.000492631
0.000486128
0.000479518
0.000473014
0.000466845
0.00046125
0.000456458
0.000452674
0.000450064
0.000448734
0.000643664
0.000642977
0.000641585
0.00063945
0.000636524
0.000632762
0.000628136
0.000622649
0.000616347
0.000609323
0.000601717
0.000593718
0.000585559
0.000577504
0.000569841
0.000562869
0.000556877
0.000552127
0.000548834
0.00054715
0.000776726
0.000775946
0.000774353
0.000771887
0.000768475
0.000764047
0.00075856
0.00075201
0.000744444
0.000735971
0.00072676
0.00071704
0.000707094
0.000697246
0.000687853
0.000679285
0.000671903
0.000666037
0.000661962
0.000659874
0.000925576
0.000924696
0.000922888
0.000920068
0.000916132
0.000910984
0.000904557
0.000896835
0.000887868
0.000877782
0.000866775
0.000855123
0.000843163
0.000831292
0.000819941
0.000809564
0.000800605
0.000793474
0.000788512
0.000785967
0.00108779
0.00108681
0.00108478
0.0010816
0.00107712
0.00107121
0.00106379
0.00105481
0.00104433
0.00103249
0.00101953
0.00100576
0.000991598
0.0009775
0.000963991
0.000951615
0.000940912
0.00093238
0.000926436
0.000923385
0.00125945
0.00125838
0.00125614
0.0012526
0.00124757
0.0012409
0.00123244
0.00122216
0.0012101
0.00119642
0.00118138
0.00116537
0.00114886
0.00113238
0.00111656
0.00110204
0.00108947
0.00107943
0.00107243
0.00106883
0.00143514
0.00143397
0.00143154
0.00142766
0.00142211
0.00141467
0.00140519
0.00139359
0.00137993
0.00136437
0.00134722
0.00132891
0.00130997
0.00129104
0.00127284
0.0012561
0.00124157
0.00122997
0.00122186
0.0012177
0.001608
0.00160676
0.00160415
0.00159997
0.00159392
0.00158577
0.0015753
0.00156243
0.00154721
0.00152981
0.00151058
0.00148999
0.00146867
0.00144731
0.00142673
0.00140778
0.00139132
0.00137814
0.00136894
0.00136421
0.00177016
0.00176886
0.00176611
0.00176165
0.00175517
0.00174637
0.001735
0.00172095
0.00170427
0.00168515
0.00166397
0.00164126
0.00161767
0.00159402
0.0015712
0.00155016
0.00153185
0.00151719
0.00150694
0.00150167
0.00191325
0.0019119
0.00190903
0.00190436
0.00189751
0.00188815
0.001876
0.00186093
0.00184297
0.00182235
0.00179945
0.00177484
0.00174927
0.00172358
0.00169876
0.00167586
0.00165591
0.00163992
0.00162874
0.00162298
0.00202916
0.00202778
0.00202482
0.00201998
0.00201284
0.00200304
0.00199027
0.00197438
0.0019554
0.00193355
0.00190926
0.00188312
0.00185593
0.00182859
0.00180215
0.00177772
0.00175644
0.00173936
0.00172741
0.00172126
0.00211084
0.00210943
0.00210642
0.00210147
0.00209414
0.00208403
0.00207082
0.00205436
0.00203466
0.00201195
0.00198668
0.00195946
0.00193112
0.00190261
0.00187502
0.00184952
0.00182729
0.00180945
0.00179696
0.00179052
0.00215308
0.00215166
0.00214862
0.00214361
0.00213618
0.00212591
0.00211249
0.00209572
0.00207565
0.0020525
0.00202672
0.00199895
0.00197001
0.0019409
0.00191271
0.00188665
0.00186393
0.00184569
0.00183291
0.00182634
0.000179388
0.000178338
0.000177061
0.000175881
0.000174632
0.000173292
0.000171806
0.000170136
0.000168355
0.000166441
0.00016444
0.000162355
0.000160291
0.000158369
0.000156643
0.000155154
0.000153972
0.00015323
0.000153109
0.00015343
0.000192815
0.000191123
0.000189502
0.000188323
0.000187001
0.000185608
0.000184054
0.000182234
0.000180359
0.000178303
0.00017618
0.000173904
0.000171637
0.000169571
0.000167725
0.000166111
0.000164786
0.000163911
0.000163949
0.000164823
0.000222333
0.000219893
0.000218022
0.000216942
0.000215458
0.000213873
0.000212142
0.000210051
0.000207979
0.00020558
0.000203101
0.000200422
0.00019777
0.000195387
0.000193215
0.000191233
0.000189593
0.00018842
0.000188437
0.000189809
0.000271166
0.00026989
0.000268515
0.000267222
0.00026562
0.000263732
0.000261611
0.00025921
0.00025659
0.000253654
0.000250497
0.000247238
0.000244014
0.00024095
0.000238078
0.000235462
0.000233319
0.000231807
0.00023115
0.000231231
0.000336986
0.000336221
0.000335066
0.000333633
0.000331828
0.000329634
0.000327062
0.000324106
0.000320793
0.000317132
0.000313202
0.000309122
0.000305027
0.000301051
0.00029731
0.000293937
0.00029111
0.000288982
0.00028767
0.00028713
0.000421151
0.00042053
0.000419398
0.0004178
0.000415706
0.000413096
0.000409961
0.000406305
0.00040216
0.000397573
0.00039264
0.000387489
0.000382274
0.000377167
0.00037234
0.000367978
0.000364272
0.000361391
0.00035946
0.000358514
0.000525562
0.000524938
0.000523711
0.00052188
0.000519413
0.000516278
0.000512455
0.000507949
0.000502795
0.000497067
0.000490878
0.000484385
0.000477778
0.000471271
0.000465097
0.000459494
0.000454698
0.000450919
0.000448323
0.000447009
0.000652019
0.000651331
0.000649942
0.000647814
0.000644896
0.000641133
0.000636494
0.000630975
0.000624617
0.000617511
0.000609798
0.000601671
0.000593366
0.000585155
0.000577335
0.000570213
0.000564088
0.000559234
0.000555872
0.000554154
0.000801778
0.000801
0.000799408
0.000796936
0.000793498
0.000789016
0.000783432
0.000776735
0.000768969
0.000760239
0.00075072
0.000740649
0.000730319
0.000720071
0.00071028
0.000701334
0.000693618
0.000687482
0.000683217
0.000681032
0.000975142
0.000974262
0.000972448
0.000969598
0.00096559
0.000960306
0.000953661
0.000945628
0.00093625
0.000925652
0.000914043
0.000901713
0.000889021
0.000876391
0.000864288
0.0008532
0.000843612
0.00083597
0.000830648
0.000827917
0.00117103
0.00117005
0.00116801
0.00116476
0.00116015
0.001154
0.0011462
0.00113669
0.00112551
0.00111282
0.00109885
0.00108396
0.00106858
0.00105323
0.00103848
0.00102493
0.00101319
0.00100382
0.000997278
0.000993918
0.00138658
0.0013855
0.00138324
0.0013796
0.00137437
0.00136732
0.00135828
0.00134718
0.00133406
0.00131907
0.00130251
0.00128479
0.00126643
0.00124806
0.00123036
0.00121407
0.00119992
0.0011886
0.00118069
0.00117663
0.00161679
0.00161563
0.00161317
0.00160917
0.00160333
0.00159537
0.00158506
0.0015723
0.00155712
0.0015397
0.00152037
0.00149963
0.00147807
0.00145644
0.00143555
0.00141628
0.00139951
0.00138608
0.00137668
0.00137184
0.00185443
0.0018532
0.00185056
0.00184623
0.00183982
0.00183097
0.0018194
0.00180497
0.00178769
0.00176778
0.00174561
0.00172173
0.00169686
0.00167183
0.00164761
0.00162523
0.00160571
0.00159004
0.00157907
0.00157343
0.00209008
0.0020888
0.00208604
0.00208141
0.00207448
0.0020648
0.00205202
0.00203596
0.00201664
0.00199427
0.00196928
0.00194229
0.00191411
0.0018857
0.00185815
0.00183263
0.00181034
0.00179243
0.00177988
0.00177341
0.00231267
0.00231136
0.0023085
0.00230364
0.00229626
0.00228583
0.00227194
0.00225438
0.00223315
0.00220847
0.00218082
0.0021509
0.00211958
0.00208795
0.00205721
0.0020287
0.00200377
0.0019837
0.00196963
0.00196237
0.00251022
0.00250889
0.00250596
0.00250093
0.00249318
0.00248212
0.00246728
0.00244841
0.00242549
0.00239877
0.00236877
0.00233623
0.00230212
0.00226761
0.00223404
0.00220285
0.00217554
0.00215354
0.00213809
0.00213012
0.00267097
0.00266964
0.00266667
0.00266151
0.00265348
0.00264192
0.00262633
0.0026064
0.00258212
0.00255376
0.00252184
0.00248717
0.00245078
0.00241393
0.00237803
0.00234464
0.00231538
0.00229179
0.00227522
0.00226666
0.00278463
0.0027833
0.00278031
0.00277506
0.00276684
0.00275495
0.00273882
0.00271816
0.00269292
0.00266339
0.00263013
0.00259395
0.00255595
0.00251742
0.00247987
0.00244493
0.00241428
0.00238956
0.00237218
0.00236321
0.00284351
0.00284218
0.00283918
0.0028339
0.00282559
0.00281352
0.00279712
0.00277608
0.00275035
0.00272021
0.00268625
0.00264929
0.00261045
0.00257106
0.00253265
0.0024969
0.00246553
0.00244022
0.00242242
0.00241323
0.000221413
0.000220751
0.000219744
0.00021857
0.000217209
0.000215648
0.000213863
0.000211849
0.000209639
0.000207251
0.000204733
0.000202133
0.000199544
0.000197069
0.000194792
0.000192791
0.000191154
0.000189984
0.000189356
0.000189178
0.000239553
0.000238735
0.000237611
0.000236382
0.000234944
0.000233286
0.000231381
0.000229212
0.000226833
0.000224249
0.000221518
0.000218683
0.000215852
0.000213149
0.000210655
0.00020845
0.00020663
0.00020532
0.000204659
0.000204555
0.000277374
0.000276413
0.000275189
0.000273883
0.000272294
0.000270427
0.000268267
0.000265785
0.000263054
0.000260053
0.000256863
0.00025354
0.000250215
0.000247028
0.000244065
0.000241415
0.000239206
0.000237582
0.000236735
0.000236608
0.000336987
0.000336221
0.00033506
0.000333624
0.000331822
0.000329636
0.000327066
0.000324105
0.000320787
0.000317127
0.000313205
0.000309126
0.000305025
0.000301044
0.000297305
0.000293939
0.000291113
0.00028898
0.00028767
0.000287144
0.00041949
0.000418838
0.000417679
0.000416072
0.000413981
0.00041138
0.00040826
0.000404624
0.000400499
0.000395932
0.000391017
0.000385883
0.000380685
0.000375596
0.000370786
0.000366441
0.000362752
0.000359894
0.000357995
0.000357081
0.000527083
0.000526439
0.000525194
0.000523354
0.000520885
0.000517751
0.00051393
0.000509423
0.000504264
0.000498521
0.000492311
0.00048579
0.00047915
0.00047261
0.000466402
0.000460766
0.000455945
0.000452153
0.00044956
0.000448253
0.000662538
0.00066184
0.000660436
0.000658295
0.000655358
0.000651567
0.000646885
0.000641303
0.000634861
0.000627646
0.000619802