# vtk DataFile Version 2.0
Pressure 3D1D coupled problem
ASCII
DATASET UNSTRUCTURED_GRID
POINTS 9261 float
0 0 0
0 0 0.1
0 0 0.2
0 0 0.3
0 0 0.4
0 0 0.5
0 0 0.6
0 0 0.7
0 0 0.8
0 0 0.9
0 0 1
0 0 1.1
0 0 1.2
0 0 1.3
0 0 1.4
0 0 1.5
0 0 1.6
0 0 1.7
0 0 1.8
0 0 1.9
0 0 2
0 0.1 0
0 0.1 0.1
0 0.1 0.2
0 0.1 0.3
0 0.1 0.4
0 0.1 0.5
0 0.1 0.6
0 0.1 0.7
0 0.1 0.8
0 0.1 0.9
0 0.1 1
0 0.1 1.1
0 0.1 1.2
0 0.1 1.3
0 0.1 1.4
0 0.1 1.5
0 0.1 1.6
0 0.1 1.7
0 0.1 1.8
0 0.1 1.9
0 0.1 2
0 0.2 0
0 0.2 0.1
0 0.2 0.2
0 0.2 0.3
0 0.2 0.4
0 0.2 0.5
0 0.2 0.6
0 0.2 0.7
0 0.2 0.8
0 0.2 0.9
0 0.2 1
0 0.2 1.1
0 0.2 1.2
0 0.2 1.3
0 0.2 1.4
0 0.2 1.5
0 0.2 1.6
0 0.2 1.7
0 0.2 1.8
0 0.2 1.9
0 0.2 2
0 0.3 0
0 0.3 0.1
0 0.3 0.2
0 0.3 0.3
0 0.3 0.4
0 0.3 0.5
0 0.3 0.6
0 0.3 0.7
0 0.3 0.8
0 0.3 0.9
0 0.3 1
0 0.3 1.1
0 0.3 1.2
0 0.3 1.3
0 0.3 1.4
0 0.3 1.5
0 0.3 1.6
0 0.3 1.7
0 0.3 1.8
0 0.3 1.9
0 0.3 2
0 0.4 0
0 0.4 0.1
0 0.4 0.2
0 0.4 0.3
0 0.4 0.4
0 0.4 0.5
0 0.4 0.6
0 0.4 0.7
0 0.4 0.8
0 0.4 0.9
0 0.4 1
0 0.4 1.1
0 0.4 1.2
0 0.4 1.3
0 0.4 1.4
0 0.4 1.5
0 0.4 1.6
0 0.4 1.7
0 0.4 1.8
0 0.4 1.9
0 0.4 2
0 0.5 0
0 0.5 0.1
0 0.5 0.2
0 0.5 0.3
0 0.5 0.4
0 0.5 0.5
0 0.5 0.6
0 0.5 0.7
0 0.5 0.8
0 0.5 0.9
0 0.5 1
0 0.5 1.1
0 0.5 1.2
0 0.5 1.3
0 0.5 1.4
0 0.5 1.5
0 0.5 1.6
0 0.5 1.7
0 0.5 1.8
0 0.5 1.9
0 0.5 2
0 0.6 0
0 0.6 0.1
0 0.6 0.2
0 0.6 0.3
0 0.6 0.4
0 0.6 0.5
0 0.6 0.6
0 0.6 0.7
0 0.6 0.8
0 0.6 0.9
0 0.6 1
0 0.6 1.1
0 0.6 1.2
0 0.6 1.3
0 0.6 1.4
0 0.6 1.5
0 0.6 1.6
0 0.6 1.7
0 0.6 1.8
0 0.6 1.9
0 0.6 2
0 0.7 0
0 0.7 0.1
0 0.7 0.2
0 0.7 0.3
0 0.7 0.4
0 0.7 0.5
0 0.7 0.6
0 0.7 0.7
0 0.7 0.8
0 0.7 0.9
0 0.7 1
0 0.7 1.1
0 0.7 1.2
0 0.7 1.3
0 0.7 1.4
0 0.7 1.5
0 0.7 1.6
0 0.7 1.7
0 0.7 1.8
0 0.7 1.9
0 0.7 2
0 0.8 0
0 0.8 0.1
0 0.8 0.2
0 0.8 0.3
0 0.8 0.4
0 0.8 0.5
0 0.8 0.6
0 0.8 0.7
0 0.8 0.8
0 0.8 0.9
0 0.8 1
0 0.8 1.1
0 0.8 1.2
0 0.8 1.3
0 0.8 1.4
0 0.8 1.5
0 0.8 1.6
0 0.8 1.7
0 0.8 1.8
0 0.8 1.9
0 0.8 2
0 0.9 0
0 0.9 0.1
0 0.9 0.2
0 0.9 0.3
0 0.9 0.4
0 0.9 0.5
0 0.9 0.6
0 0.9 0.7
0 0.9 0.8
0 0.9 0.9
0 0.9 1
0 0.9 1.1
0 0.9 1.2
0 0.9 1.3
0 0.9 1.4
0 0.9 1.5
0 0.9 1.6
0 0.9 1.7
0 0.9 1.8
0 0.9 1.9
0 0.9 2
0 1 0
0 1 0.1
0 1 0.2
0 1 0.3
0 1 0.4
0 1 0.5
0 1 0.6
0 1 0.7
0 1 0.8
0 1 0.9
0 1 1
0 1 1.1
0 1 1.2
0 1 1.3
0 1 1.4
0 1 1.5
0 1 1.6
0 1 1.7
0 1 1.8
0 1 1.9
0 1 2
0 1.1 0
0 1.1 0.1
0 1.1 0.2
0 1.1 0.3
0 1.1 0.4
0 1.1 0.5
0 1.1 0.6
0 1.1 0.7
0 1.1 0.8
0 1.1 0.9
0 1.1 1
0 1.1 1.1
0 1.1 1.2
0 1.1 1.3
0 1.1 1.4
0 1.1 1.5
0 1.1 1.6
0 1.1 1.7
0 1.1 1.8
0 1.1 1.9
0 1.1 2
0 1.2 0
0 1.2 0.1
0 1.2 0.2
0 1.2 0.3
0 1.2 0.4
0 1.2 0.5
0 1.2 0.6
0 1.2 0.7
0 1.2 0.8
0 1.2 0.9
0 1.2 1
0 1.2 1.1
0 1.2 1.2
0 1.2 1.3
0 1.2 1.4
0 1.2 1.5
0 1.2 1.6
0 1.2 1.7
0 1.2 1.8
0 1.2 1.9
0 1.2 2
0 1.3 0
0 1.3 0.1
0 1.3 0.2
0 1.3 0.3
0 1.3 0.4
0 1.3 0.5
0 1.3 0.6
0 1.3 0.7
0 1.3 0.8
0 1.3 0.9
0 1.3 1
0 1.3 1.1
0 1.3 1.2
0 1.3 1.3
0 1.3 1.4
0 1.3 1.5
0 1.3 1.6
0 1.3 1.7
0 1.3 1.8
0 1.3 1.9
0 1.3 2
0 1.4 0
0 1.4 0.1
0 1.4 0.2
0 1.4 0.3
0 1.4 0.4
0 1.4 0.5
0 1.4 0.6
0 1.4 0.7
0 1.4 0.8
0 1.4 0.9
0 1.4 1
0 1.4 1.1
0 1.4 1.2
0 1.4 1.3
0 1.4 1.4
0 1.4 1.5
0 1.4 1.6
0 1.4 1.7
0 1.4 1.8
0 1.4 1.9
0 1.4 2
0 1.5 0
0 1.5 0.1
0 1.5 0.2
0 1.5 0.3
0 1.5 0.4
0 1.5 0.5
0 1.5 0.6
0 1.5 0.7
0 1.5 0.8
0 1.5 0.9
0 1.5 1
0 1.5 1.1
0 1.5 1.2
0 1.5 1.3
0 1.5 1.4
0 1.5 1.5
0 1.5 1.6
0 1.5 1.7
0 1.5 1.8
0 1.5 1.9
0 1.5 2
0 1.6 0
0 1.6 0.1
0 1.6 0.2
0 1.6 0.3
0 1.6 0.4
0 1.6 0.5
0 1.6 0.6
0 1.6 0.7
0 1.6 0.8
0 1.6 0.9
0 1.6 1
0 1.6 1.1
0 1.6 1.2
0 1.6 1.3
0 1.6 1.4
0 1.6 1.5
0 1.6 1.6
0 1.6 1.7
0 1.6 1.8
0 1.6 1.9
0 1.6 2
0 1.7 0
0 1.7 0.1
0 1.7 0.2
0 1.7 0.3
0 1.7 0.4
0 1.7 0.5
0 1.7 0.6
0 1.7 0.7
0 1.7 0.8
0 1.7 0.9
0 1.7 1
0 1.7 1.1
0 1.7 1.2
0 1.7 1.3
0 1.7 1.4
0 1.7 1.5
0 1.7 1.6
0 1.7 1.7
0 1.7 1.8
0 1.7 1.9
0 1.7 2
0 1.8 0
0 1.8 0.1
0 1.8 0.2
0 1.8 0.3
0 1.8 0.4
0 1.8 0.5
0 1.8 0.6
0 1.8 0.7
0 1.8 0.8
0 1.8 0.9
0 1.8 1
0 1.8 1.1
0 1.8 1.2
0 1.8 1.3
0 1.8 1.4
0 1.8 1.5
0 1.8 1.6
0 1.8 1.7
0 1.8 1.8
0 1.8 1.9
0 1.8 2
0 1.9 0
0 1.9 0.1
0 1.9 0.2
0 1.9 0.3
0 1.9 0.4
0 1.9 0.5
0 1.9 0.6
0 1.9 0.7
0 1.9 0.8
0 1.9 0.9
0 1.9 1
0 1.9 1.1
0 1.9 1.2
0 1.9 1.3
0 1.9 1.4
0 1.9 1.5
0 1.9 1.6
0 1.9 1.7
0 1.9 1.8
0 1.9 1.9
0 1.9 2
0 2 0
0 2 0.1
0 2 0.2
0 2 0.3
0 2 0.4
0 2 0.5
0 2 0.6
0 2 0.7
0 2 0.8
0 2 0.9
0 2 1
0 2 1.1
0 2 1.2
0 2 1.3
0 2 1.4
0 2 1.5
0 2 1.6
0 2 1.7
0 2 1.8
0 2 1.9
0 2 2
0.1 0 0
0.1 0 0.1
0.1 0 0.2
0.1 0 0.3
0.1 0 0.4
0.1 0 0.5
0.1 0 0.6
0.1 0 0.7
0.1 0 0.8
0.1 0 0.9
0.1 0 1
0.1 0 1.1
0.1 0 1.2
0.1 0 1.3
0.1 0 1.4
0.1 0 1.5
0.1 0 1.6
0.1 0 1.7
0.1 0 1.8
0.1 0 1.9
0.1 0 2
0.1 0.1 0
0.1 0.1 0.1
0.1 0.1 0.2
0.1 0.1 0.3
0.1 0.1 0.4
0.1 0.1 0.5
0.1 0.1 0.6
0.1 0.1 0.7
0.1 0.1 0.8
0.1 0.1 0.9
0.1 0.1 1
0.1 0.1 1.1
0.1 0.1 1.2
0.1 0.1 1.3
0.1 0.1 1.4
0.1 0.1 1.5
0.1 0.1 1.6
0.1 0.1 1.7
0.1 0.1 1.8
0.1 0.1 1.9
0.1 0.1 2
0.1 0.2 0
0.1 0.2 0.1
0.1 0.2 0.2
0.1 0.2 0.3
0.1 0.2 0.4
0.1 0.2 0.5
0.1 0.2 0.6
0.1 0.2 0.7
0.1 0.2 0.8
0.1 0.2 0.9
0.1 0.2 1
0.1 0.2 1.1
0.1 0.2 1.2
0.1 0.2 1.3
0.1 0.2 1.4
0.1 0.2 1.5
0.1 0.2 1.6
0.1 0.2 1.7
0.1 0.2 1.8
0.1 0.2 1.9
0.1 0.2 2
0.1 0.3 0
0.1 0.3 0.1
0.1 0.3 0.2
0.1 0.3 0.3
0.1 0.3 0.4
0.1 0.3 0.5
0.1 0.3 0.6
0.1 0.3 0.7
0.1 0.3 0.8
0.1 0.3 0.9
0.1 0.3 1
0.1 0.3 1.1
0.1 0.3 1.2
0.1 0.3 1.3
0.1 0.3 1.4
0.1 0.3 1.5
0.1 0.3 1.6
0.1 0.3 1.7
0.1 0.3 1.8
0.1 0.3 1.9
0.1 0.3 2
0.1 0.4 0
0.1 0.4 0.1
0.1 0.4 0.2
0.1 0.4 0.3
0.1 0.4 0.4
0.1 0.4 0.5
0.1 0.4 0.6
0.1 0.4 0.7
0.1 0.4 0.8
0.1 0.4 0.9
0.1 0.4 1
0.1 0.4 1.1
0.1 0.4 1.2
0.1 0.4 1.3
0.1 0.4 1.4
0.1 0.4 1.5
0.1 0.4 1.6
0.1 0.4 1.7
0.1 0.4 1.8
0.1 0.4 1.9
0.1 0.4 2
0.1 0.5 0
0.1 0.5 0.1
0.1 0.5 0.2
0.1 0.5 0.3
0.1 0.5 0.4
0.1 0.5 0.5
0.1 0.5 0.6
0.1 0.5 0.7
0.1 0.5 0.8
0.1 0.5 0.9
0.1 0.5 1
0.1 0.5 1.1
0.1 0.5 1.2
0.1 0.5 1.3
0.1 0.5 1.4
0.1 0.5 1.5
0.1 0.5 1.6
0.1 0.5 1.7
0.1 0.5 1.8
0.1 0.5 1.9
0.1 0.5 2
0.1 0.6 0
0.1 0.6 0.1
0.1 0.6 0.2
0.1 0.6 0.3
0.1 0.6 0.4
0.1 0.6 0.5
0.1 0.6 0.6
0.1 0.6 0.7
0.1 0.6 0.8
0.1 0.6 0.9
0.1 0.6 1
0.1 0.6 1.1
0.1 0.6 1.2
0.1 0.6 1.3
0.1 0.6 1.4
0.1 0.6 1.5
0.1 0.6 1.6
0.1 0.6 1.7
0.1 0.6 1.8
0.1 0.6 1.9
0.1 0.6 2
0.1 0.7 0
0.1 0.7 0.1
0.1 0.7 0.2
0.1 0.7 0.3
0.1 0.7 0.4
0.1 0.7 0.5
0.1 0.7 0.6
0.1 0.7 0.7
0.1 0.7 0.8
0.1 0.7 0.9
0.1 0.7 1
0.1 0.7 1.1
0.1 0.7 1.2
0.1 0.7 1.3
0.1 0.7 1.4
0.1 0.7 1.5
0.1 0.7 1.6
0.1 0.7 1.7
0.1 0.7 1.8
0.1 0.7 1.9
0.1 0.7 2
0.1 0.8 0
0.1 0.8 0.1
0.1 0.8 0.2
0.1 0.8 0.3
0.1 0.8 0.4
0.1 0.8 0.5
0.1 0.8 0.6
0.1 0.8 0.7
0.1 0.8 0.8
0.1 0.8 0.9
0.1 0.8 1
0.1 0.8 1.1
0.1 0.8 1.2
0.1 0.8 1.3
0.1 0.8 1.4
0.1 0.8 1.5
0.1 0.8 1.6
0.1 0.8 1.7
0.1 0.8 1.8
0.1 0.8 1.9
0.1 0.8 2
0.1 0.9 0
0.1 0.9 0.1
0.1 0.9 0.2
0.1 0.9 0.3
0.1 0.9 0.4
0.1 0.9 0.5
0.1 0.9 0.6
0.1 0.9 0.7
0.1 0.9 0.8
0.1 0.9 0.9
0.1 0.9 1
0.1 0.9 1.1
0.1 0.9 1.2
0.1 0.9 1.3
0.1 0.9 1.4
0.1 0.9 1.5
0.1 0.9 1.6
0.1 0.9 1.7
0.1 0.9 1.8
0.1 0.9 1.9
0.1 0.9 2
0.1 1 0
0.1 1 0.1
0.1 1 0.2
0.1 1 0.3
0.1 1 0.4
0.1 1 0.5
0.1 1 0.6
0.1 1 0.7
0.1 1 0.8
0.1 1 0.9
0.1 1 1
0.1 1 1.1
0.1 1 1.2
0.1 1 1.3
0.1 1 1.4
0.1 1 1.5
0.1 1 1.6
0.1 1 1.7
0.1 1 1.8
0.1 1 1.9
0.1 1 2
0.1 1.1 0
0.1 1.1 0.1
0.1 1.1 0.2
0.1 1.1 0.3
0.1 1.1 0.4
0.1 1.1 0.5
0.1 1.1 0.6
0.1 1.1 0.7
0.1 1.1 0.8
0.1 1.1 0.9
0.1 1.1 1
0.1 1.1 1.1
0.1 1.1 1.2
0.1 1.1 1.3
0.1 1.1 1.4
0.1 1.1 1.5
0.1 1.1 1.6
0.1 1.1 1.7
0.1 1.1 1.8
0.1 1.1 1.9
0.1 1.1 2
0.1 1.2 0
0.1 1.2 0.1
0.1 1.2 0.2
0.1 1.2 0.3
0.1 1.2 0.4
0.1 1.2 0.5
0.1 1.2 0.6
0.1 1.2 0.7
0.1 1.2 0.8
0.1 1.2 0.9
0.1 1.2 1
0.1 1.2 1.1
0.1 1.2 1.2
0.1 1.2 1.3
0.1 1.2 1.4
0.1 1.2 1.5
0.1 1.2 1.6
0.1 1.2 1.7
0.1 1.2 1.8
0.1 1.2 1.9
0.1 1.2 2
0.1 1.3 0
0.1 1.3 0.1
0.1 1.3 0.2
0.1 1.3 0.3
0.1 1.3 0.4
0.1 1.3 0.5
0.1 1.3 0.6
0.1 1.3 0.7
0.1 1.3 0.8
0.1 1.3 0.9
0.1 1.3 1
0.1 1.3 1.1
0.1 1.3 1.2
0.1 1.3 1.3
0.1 1.3 1.4
0.1 1.3 1.5
0.1 1.3 1.6
0.1 1.3 1.7
0.1 1.3 1.8
0.1 1.3 1.9
0.1 1.3 2
0.1 1.4 0
0.1 1.4 0.1
0.1 1.4 0.2
0.1 1.4 0.3
0.1 1.4 0.4
0.1 1.4 0.5
0.1 1.4 0.6
0.1 1.4 0.7
0.1 1.4 0.8
0.1 1.4 0.9
0.1 1.4 1
0.1 1.4 1.1
0.1 1.4 1.2
0.1 1.4 1.3
0.1 1.4 1.4
0.1 1.4 1.5
0.1 1.4 1.6
0.1 1.4 1.7
0.1 1.4 1.8
0.1 1.4 1.9
0.1 1.4 2
0.1 1.5 0
0.1 1.5 0.1
0.1 1.5 0.2
0.1 1.5 0.3
0.1 1.5 0.4
0.1 1.5 0.5
0.1 1.5 0.6
0.1 1.5 0.7
0.1 1.5 0.8
0.1 1.5 0.9
0.1 1.5 1
0.1 1.5 1.1
0.1 1.5 1.2
0.1 1.5 1.3
0.1 1.5 1.4
0.1 1.5 1.5
0.1 1.5 1.6
0.1 1.5 1.7
0.1 1.5 1.8
0.1 1.5 1.9
0.1 1.5 2
0.1 1.6 0
0.1 1.6 0.1
0.1 1.6 0.2
0.1 1.6 0.3
0.1 1.6 0.4
0.1 1.6 0.5
0.1 1.6 0.6
0.1 1.6 0.7
0.1 1.6 0.8
0.1 1.6 0.9
0.1 1.6 1
0.1 1.6 1.1
0.1 1.6 1.2
0.1 1.6 1.3
0.1 1.6 1.4
0.1 1.6 1.5
0.1 1.6 1.6
0.1 1.6 1.7
0.1 1.6 1.8
0.1 1.6 1.9
0.1 1.6 2
0.1 1.7 0
0.1 1.7 0.1
0.1 1.7 0.2
0.1 1.7 0.3
0.1 1.7 0.4
0.1 1.7 0.5
0.1 1.7 0.6
0.1 1.7 0.7
0.1 1.7 0.8
0.1 1.7 0.9
0.1 1.7 1
0.1 1.7 1.1
0.1 1.7 1.2
0.1 1.7 1.3
0.1 1.7 1.4
0.1 1.7 1.5
0.1 1.7 1.6
0.1 1.7 1.7
0.1 1.7 1.8
0.1 1.7 1.9
0.1 1.7 2
0.1 1.8 0
0.1 1.8 0.1
0.1 1.8 0.2
0.1 1.8 0.3
0.1 1.8 0.4
0.1 1.8 0.5
0.1 1.8 0.6
0.1 1.8 0.7
0.1 1.8 0.8
0.1 1.8 0.9
0.1 1.8 1
0.1 1.8 1.1
0.1 1.8 1.2
0.1 1.8 1.3
0.1 1.8 1.4
0.1 1.8 1.5
0.1 1.8 1.6
0.1 1.8 1.7
0.1 1.8 1.8
0.1 1.8 1.9
0.1 1.8 2
0.1 1.9 0
0.1 1.9 0.1
0.1 1.9 0.2
0.1 1.9 0.3
0.1 1.9 0.4
0.1 1.9 0.5
0.1 1.9 0.6
0.1 1.9 0.7
0.1 1.9 0.8
0.1 1.9 0.9
0.1 1.9 1
0.1 1.9 1.1
0.1 1.9 1.2
0.1 1.9 1.3
0.1 1.9 1.4
0.1 1.9 1.5
0.1 1.9 1.6
0.1 1.9 1.7
0.1 1.9 1.8
0.1 1.9 1.9
0.1 1.9 2
0.1 2 0
0.1 2 0.1
0.1 2 0.2
0.1 2 0.3
0.1 2 0.4
0.1 2 0.5
0.1 2 0.6
0.1 2 0.7
0.1 2 0.8
0.1 2 0.9
0.1 2 1
0.1 2 1.1
0.1 2 1.2
0.1 2 1.3
0.1 2 1.4
0.1 2 1.5
0.1 2 1.6
0.1 2 1.7
0.1 2 1.8
0.1 2 1.9
0.1 2 2
0.2 0 0
0.2 0 0.1
0.2 0 0.2
0.2 0 0.3
0.2 0 0.4
0.2 0 0.5
0.2 0 0.6
0.2 0 0.7
0.2 0 0.8
0.2 0 0.9
0.2 0 1
0.2 0 1.1
0.2 0 1.2
0.2 0 1.3
0.2 0 1.4
0.2 0 1.5
0.2 0 1.6
0.2 0 1.7
0.2 0 1.8
0.2 0 1.9
0.2 0 2
0.2 0.1 0
0.2 0.1 0.1
0.2 0.1 0.2
0.2 0.1 0.3
0.2 0.1 0.4
0.2 0.1 0.5
0.2 0.1 0.6
0.2 0.1 0.7
0.2 0.1 0.8
0.2 0.1 0.9
0.2 0.1 1
0.2 0.1 1.1
0.2 0.1 1.2
0.2 0.1 1.3
0.2 0.1 1.4
0.2 0.1 1.5
0.2 0.1 1.6
0.2 0.1 1.7
0.2 0.1 1.8
0.2 0.1 1.9
0.2 0.1 2
0.2 0.2 0
0.2 0.2 0.1
0.2 0.2 0.2
0.2 0.2 0.3
0.2 0.2 0.4
0.2 0.2 0.5
0.2 0.2 0.6
0.2 0.2 0.7
0.2 0.2 0.8
0.2 0.2 0.9
0.2 0.2 1
0.2 0.2 1.1
0.2 0.2 1.2
0.2 0.2 1.3
0.2 0.2 1.4
0.2 0.2 1.5
0.2 0.2 1.6
0.2 0.2 1.7
0.2 0.2 1.8
0.2 0.2 1.9
[...]
CELL_DATA 8000
SCALARS Phi_sigma_(3D) float 1
LOOKUP_TABLE default
0.202571
0.201314
0.199934
0.198929
0.19815
0.197585
0.197212
0.196972
0.196879
0.196833
0.196838
0.1969
0.197086
0.197447
0.197941
0.198534
0.199297
0.200326
0.201687
0.202918
0.203307
0.201471
0.199836
0.198903
0.198129
0.19757
0.197225
0.196981
0.19694
0.196891
0.196889
0.196918
0.197079
0.197465
0.197975
0.19853
0.199246
0.200247
0.201846
0.203635
0.2075
0.205713
0.204136
0.203275
0.202579
0.202108
0.201808
0.201559
0.201512
0.20148
0.201523
0.201554
0.201682
0.202029
0.202518
0.20307
0.20373
0.204625
0.206149
0.207969
0.215535
0.214546
0.213466
0.212716
0.212166
0.211812
0.211557
0.211344
0.211257
0.211252
0.211337
0.211411
0.21154
0.211811
0.212225
0.212751
0.213341
0.214074
0.215125
0.216215
0.224649
0.224151
0.223516
0.222984
0.222573
0.222284
0.222079
0.221933
0.221869
0.221876
0.221945
0.222043
0.222195
0.222437
0.222775
0.223193
0.223672
0.224231
0.224881
0.225425
0.23351
0.233258
0.232897
0.232552
0.232266
0.232052
0.231901
0.231806
0.23177
0.231789
0.231856
0.231963
0.232117
0.23233
0.232604
0.232931
0.233298
0.233695
0.23409
0.23437
0.241781
0.241649
0.241445
0.241232
0.241045
0.2409
0.2408
0.240745
0.240735
0.240767
0.240838
0.240945
0.24109
0.241276
0.241499
0.241754
0.242029
0.242306
0.242553
0.242709
0.249422
0.249352
0.249238
0.249112
0.248998
0.24891
0.248853
0.248831
0.248842
0.248887
0.248963
0.249068
0.249201
0.249362
0.249546
0.249746
0.249952
0.250148
0.25031
0.250404
0.256472
0.256435
0.256374
0.256305
0.256244
0.256199
0.256178
0.256181
0.256211
0.256267
0.256347
0.256449
0.256571
0.256711
0.256864
0.257024
0.257182
0.257325
0.257436
0.257499
0.262975
0.262958
0.262929
0.262897
0.262872
0.26286
0.262866
0.262891
0.262936
0.263
0.263083
0.263182
0.263296
0.26342
0.26355
0.263681
0.263805
0.263913
0.263995
0.264039
0.268961
0.268955
0.268946
0.26894
0.26894
0.268952
0.268978
0.26902
0.269077
0.269149
0.269234
0.269332
0.269438
0.269549
0.269663
0.269774
0.269875
0.26996
0.270023
0.270056
0.274441
0.274442
0.274446
0.274456
0.274475
0.274504
0.274545
0.2746
0.274666
0.274744
0.274832
0.274928
0.275029
0.275132
0.275234
0.27533
0.275416
0.275487
0.275537
0.275564
0.279411
0.279417
0.27943
0.279451
0.279482
0.279524
0.279577
0.279641
0.279715
0.279798
0.279888
0.279983
0.28008
0.280177
0.28027
0.280356
0.280432
0.280493
0.280536
0.280558
0.283855
0.283864
0.283883
0.283912
0.283952
0.284003
0.284065
0.284136
0.284216
0.284303
0.284395
0.284489
0.284584
0.284676
0.284764
0.284843
0.284911
0.284966
0.285004
0.285024
0.287748
0.28776
0.287783
0.287818
0.287864
0.287922
0.28799
0.288067
0.288151
0.288241
0.288335
0.288429
0.288522
0.288611
0.288695
0.288769
0.288833
0.288883
0.288918
0.288936
0.291062
0.291075
0.291101
0.29114
0.291191
0.291254
0.291326
0.291408
0.291495
0.291588
0.291682
0.291776
0.291868
0.291956
0.292036
0.292107
0.292168
0.292215
0.292247
0.292264
0.293764
0.293778
0.293806
0.293848
0.293902
0.293969
0.294045
0.294129
0.294219
0.294313
0.294409
0.294503
0.294594
0.29468
0.294758
0.294827
0.294885
0.294931
0.294962
0.294978
0.295825
0.295839
0.295869
0.295912
0.295969
0.296038
0.296116
0.296202
0.296294
0.29639
0.296485
0.29658
0.296671
0.296755
0.296832
0.2969
0.296956
0.297
0.297031
0.297046
0.297217
0.297232
0.297262
0.297307
0.297365
0.297435
0.297515
0.297602
0.297695
0.297791
0.297888
0.297982
0.298072
0.298157
0.298233
0.298299
0.298355
0.298398
0.298428
0.298443
0.29792
0.297935
0.297965
0.298011
0.298069
0.29814
0.298221
0.298309
0.298402
0.298499
0.298595
0.298689
0.29878
0.298863
0.298939
0.299005
0.29906
0.299103
0.299132
0.299147
0.203441
0.201632
0.200012
0.199081
0.198313
0.197761
0.197419
0.197171
0.197125
0.197078
0.197083
0.197113
0.197271
0.197652
0.198162
0.198722
0.199438
0.20043
0.202013
0.203786
0.202056
0.197559
0.195105
0.194715
0.193813
0.19317
0.192925
0.192575
0.192803
0.19268
0.192643
0.192533
0.192612
0.193159
0.193789
0.194192
0.194794
0.195557
0.197877
0.20217
0.205849
0.201319
0.198796
0.198445
0.19762
0.197173
0.196991
0.196548
0.196721
0.196618
0.196752
0.19663
0.196603
0.197063
0.197683
0.198211
0.198761
0.199314
0.201566
0.206266
0.215882
0.214307
0.212854
0.212129
0.211588
0.211379
0.211175
0.210846
0.210739
0.210738
0.210977
0.211007
0.211021
0.211248
0.211691
0.212346
0.212897
0.213467
0.214725
0.216747
0.225846
0.225232
0.22453
0.224009
0.223613
0.223351
0.223161
0.223009
0.222951
0.222962
0.223048
0.223138
0.223273
0.223509
0.223846
0.224266
0.224725
0.225258
0.225959
0.226656
0.234809
0.234538
0.234172
0.233838
0.233564
0.233361
0.233219
0.23313
0.2331
0.233122
0.233192
0.233297
0.233447
0.233658
0.233927
0.234245
0.234598
0.234985
0.235385
0.235686
0.242997
0.242865
0.242666
0.242462
0.242284
0.242147
0.242054
0.242005
0.241999
0.242034
0.242106
0.242213
0.242357
0.24254
0.242759
0.243007
0.243273
0.243542
0.243785
0.243941
0.250535
0.250467
0.250358
0.250239
0.250132
0.25005
0.249999
0.249981
0.249996
0.250043
0.25012
0.250226
0.250358
0.250517
0.250697
0.250893
0.251094
0.251284
0.251442
0.251534
0.257505
0.257471
0.257413
0.257349
0.257292
0.257252
0.257235
0.257243
0.257276
0.257333
0.257414
0.257517
0.257639
0.257778
0.257929
0.258086
0.25824
0.258379
0.258488
0.258549
0.263957
0.263941
0.263914
0.263886
0.263865
0.263857
0.263866
0.263894
0.263942
0.264008
0.264093
0.264193
0.264306
0.264429
0.264558
0.264688
0.26481
0.264916
0.264995
0.265039
0.269916
0.269911
0.269904
0.2699
0.269904
0.269919
0.269948
0.269992
0.270052
0.270126
0.270213
0.270311
0.270418
0.27053
0.270643
0.270752
0.270852
0.270937
0.270998
0.271031
0.275389
0.275391
0.275397
0.275409
0.27543
0.275462
0.275506
0.275563
0.275632
0.275713
0.275802
0.275899
0.276001
0.276104
0.276206
0.276302
0.276387
0.276457
0.276507
0.276533
0.280367
0.280373
0.280388
0.280411
0.280445
0.280489
0.280545
0.280611
0.280688
0.280773
0.280865
0.280961
0.28106
0.281157
0.281251
0.281337
0.281412
0.281473
0.281515
0.281537
0.284828
0.284838
0.284859
0.28489
0.284932
0.284986
0.28505
0.285124
0.285207
0.285296
0.28539
0.285486
0.285582
0.285675
0.285763
0.285842
0.285911
0.285965
0.286003
0.286023
0.288746
0.288758
0.288782
0.288819
0.288868
0.288928
0.288999
0.289079
0.289166
0.289258
0.289354
0.28945
0.289544
0.289635
0.289718
0.289793
0.289857
0.289907
0.289942
0.28996
0.292085
0.292099
0.292126
0.292167
0.292221
0.292286
0.292362
0.292446
0.292536
0.292631
0.292728
0.292824
0.292918
0.293006
0.293087
0.293159
0.293219
0.293266
0.293299
0.293316
0.294812
0.294827
0.294856
0.2949
0.294957
0.295026
0.295105
0.295193
0.295286
0.295383
0.29548
0.295577
0.295669
0.295756
0.295835
0.295905
0.295963
0.296008
0.29604
0.296056
0.296894
0.296909
0.29694
0.296986
0.297045
0.297117
0.297198
0.297288
0.297383
0.297481
0.297579
0.297676
0.297768
0.297854
0.297932
0.298
0.298056
0.2981
0.298131
0.298146
0.298301
0.298317
0.298349
0.298396
0.298457
0.29853
0.298613
0.298704
0.2988
0.298899
0.298997
0.299094
0.299186
0.299271
0.299348
0.299415
0.299471
0.299514
0.299544
0.299559
0.299012
0.299028
0.29906
0.299108
0.299169
0.299243
0.299327
0.299419
0.299515
0.299614
0.299713
0.29981
0.299901
0.299986
0.300063
0.300129
0.300185
0.300227
0.300257
0.300272
0.207878
0.206211
0.20468
0.203811
0.203131
0.202692
0.202397
0.202134
0.202065
0.202039
0.20211
0.202148
0.202263
0.202589
0.203075
0.203654
0.204316
0.205183
0.20665
0.208409
0.206222
0.202152
0.199661
0.199174
0.198395
0.198099
0.197927
0.197412
0.197474
0.197398
0.197678
0.197571
0.197476
0.197841
0.198448
0.199141
0.199707
0.200185
0.202305
0.206893
0.21024
0.206044
0.20369
0.203366
0.202618
0.202207
0.202042
0.201645
0.201814
0.201729
0.201851
0.201743
0.20173
0.202168
0.202749
0.203234
0.203736
0.204257
0.206375
0.210725
0.219889
0.218
0.216796
0.21636
0.215807
0.215293
0.215068
0.214971
0.215089
0.215053
0.214939
0.214966
0.21517
0.215578
0.215992
0.216233
0.21671
0.217448
0.218746
0.220295
0.229136
0.228501
0.227874
0.22744
0.22707
0.226779
0.226599
0.226503
0.226495
0.226503
0.226533
0.226619
0.226786
0.227048
0.22736
0.227691
0.228105
0.228631
0.229297
0.229895
0.237624
0.237366
0.237036
0.236741
0.236492
0.236301
0.236174
0.236105
0.236093
0.236118
0.23618
0.236284
0.236438
0.236648
0.236901
0.237188
0.237514
0.237876
0.238248
0.238518
0.245459
0.245338
0.24516
0.244978
0.24482
0.244697
0.244617
0.244579
0.244583
0.244623
0.244696
0.244803
0.244945
0.245123
0.245332
0.245564
0.245813
0.246064
0.246289
0.246432
0.252746
0.252685
0.252588
0.252483
0.25239
0.25232
0.252279
0.252269
0.252291
0.252343
0.252422
0.252528
0.252659
0.252814
0.252988
0.253174
0.253364
0.253542
0.253689
0.253776
0.259548
0.259518
0.259468
0.259413
0.259366
0.259336
0.259327
0.259341
0.25938
0.259442
0.259525
0.259629
0.25975
0.259887
0.260034
0.260185
0.260332
0.260464
0.260567
0.260624
0.2659
0.265887
0.265866
0.265844
0.26583
0.265829
0.265845
0.265879
0.265932
0.266002
0.266089
0.266191
0.266304
0.266427
0.266553
0.266679
0.266797
0.266899
0.266975
0.267016
0.271811
0.271809
0.271805
0.271806
0.271816
0.271837
0.271872
0.271921
0.271986
0.272064
0.272154
0.272254
0.272362
0.272473
0.272585
0.272693
0.272791
0.272873
0.272932
0.272964
0.277276
0.27728
0.277289
0.277305
0.277331
0.277368
0.277418
0.27748
0.277554
0.277638
0.277731
0.27783
0.277934
0.278038
0.278139
0.278234
0.278318
0.278387
0.278436
0.278461
0.282274
0.282282
0.282299
0.282326
0.282364
0.282414
0.282475
0.282547
0.282628
0.282718
0.282813
0.282912
0.283012
0.283111
0.283205
0.283291
0.283365
0.283425
0.283468
0.283489
0.286775
0.286786
0.286809
0.286844
0.286891
0.28695
0.28702
0.287099
0.287187
0.28728
0.287378
0.287477
0.287575
0.28767
0.287759
0.287838
0.287907
0.287961
0.287998
0.288018
0.290743
0.290756
0.290784
0.290824
0.290878
0.290944
0.29102
0.291106
0.291198
0.291295
0.291394
0.291494
0.291591
0.291683
0.291768
0.291843
0.291907
0.291957
0.291992
0.292009
0.294137
0.294152
0.294182
0.294227
0.294286
0.294357
0.294439
0.294528
0.294625
0.294724
0.294825
0.294925
0.295021
0.295111
0.295194
0.295266
0.295327
0.295374
0.295407
0.295423
0.296917
0.296933
0.296965
0.297013
0.297075
0.29715
0.297236
0.297329
0.297428
0.29753
0.297632
0.297732
0.297828
0.297917
0.297997
0.298067
0.298126
0.298171
0.298202
0.298218
0.299043
0.29906
0.299094
0.299144
0.299209
0.299286
0.299374
0.29947
0.299571
0.299674
0.299777
0.299878
0.299973
0.300061
0.30014
0.300209
0.300266
0.30031
0.30034
0.300355
0.300483
0.3005
0.300535
0.300586
0.300653
0.300732
0.300822
0.300919
0.301021
0.301126
0.301229
0.30133
0.301424
0.301512
0.30159
0.301658
0.301714
0.301757
0.301787
0.301802
0.301211
0.301228
0.301264
0.301316
0.301383
0.301463
0.301553
0.301651
0.301754
0.301859
0.301963
0.302063
0.302158
0.302245
0.302323
0.30239
0.302445
0.302488
0.302517
0.302532
0.216048
0.215127
0.21412
0.2134
0.212855
0.212479
0.212219
0.212029
0.211956
0.211947
0.212004
0.212082
0.212231
0.212515
0.21292
0.213412
0.213993
0.214731
0.215734
0.216697
0.216564
0.215106
0.213836
0.213167
0.212624
0.212279
0.212049
0.211828
0.211785
0.211776
0.211861
0.211907
0.212014
0.212306
0.212732
0.213229
0.213773
0.214458
0.215679
0.217238
0.219688
0.217793
0.216451
0.215952
0.215419
0.215077
0.214884
0.214665
0.214694
0.214672
0.214745
0.214763
0.214859
0.21518
0.215606
0.216036
0.216519
0.217109
0.218386
0.220346
0.226706
0.225802
0.224995
0.224516
0.224103
0.223784
0.223594
0.223485
0.223489
0.223491
0.223514
0.223585
0.223748
0.22403
0.224367
0.224712
0.225147
0.225726
0.226562
0.227424
0.234317
0.233914
0.233456
0.233093
0.232793
0.232562
0.232414
0.232336
0.232325
0.232345
0.232396
0.232493
0.232653
0.232884
0.233161
0.233469
0.233834
0.23427
0.234767
0.235169
0.241835
0.241645
0.241388
0.241148
0.240943
0.240785
0.240683
0.240632
0.24063
0.240664
0.240732
0.240838
0.240989
0.241184
0.241415
0.241675
0.241964
0.242274
0.242575
0.242782
0.249066
0.248972
0.248828
0.24868
0.24855
0.248451
0.24839
0.248367
0.248381
0.248428
0.248505
0.248612
0.248752
0.248921
0.249116
0.249328
0.249551
0.249773
0.249965
0.250083
0.25597
0.255921
0.255843
0.255759
0.255685
0.255632
0.255605
0.255608
0.255639
0.255697
0.25578
0.255886
0.256015
0.256165
0.256329
0.256502
0.256676
0.256837
0.256968
0.257043
0.262536
0.262512
0.262473
0.262432
0.262399
0.262381
0.262383
0.262408
0.262454
0.262522
0.262609
0.262714
0.262835
0.262968
0.263109
0.263252
0.26339
0.263512
0.263605
0.263657
0.268755
0.268746
0.268732
0.26872
0.268716
0.268725
0.268751
0.268793
0.268853
0.26893
0.269021
0.269124
0.269238
0.269359
0.269482
0.269603
0.269716
0.269811
0.269882
0.26992
0.274611
0.274611
0.274613
0.274621
0.274639
0.274669
0.274712
0.27477
0.274841
0.274925
0.275019
0.275122
0.275231
0.275342
0.275453
0.275558
0.275652
0.275731
0.275788
0.275817
0.280076
0.280082
0.280096
0.280118
0.280152
0.280197
0.280255
0.280324
0.280405
0.280495
0.280593
0.280696
0.280801
0.280906
0.281007
0.2811
0.281183
0.28125
0.281297
0.281322
0.285116
0.285126
0.285148
0.285181
0.285226
0.285283
0.285352
0.285431
0.28552
0.285616
0.285716
0.285819
0.285922
0.286022
0.286116
0.286202
0.286276
0.286335
0.286376
0.286398
0.289687
0.2897
0.289727
0.289768
0.289822
0.289889
0.289967
0.290054
0.290149
0.290249
0.290352
0.290456
0.290557
0.290654
0.290744
0.290824
0.290891
0.290945
0.290982
0.291001
0.29374
0.293756
0.293787
0.293834
0.293895
0.293969
0.294053
0.294147
0.294248
0.294352
0.294457
0.294561
0.294662
0.294756
0.294842
0.294918
0.294982
0.295032
0.295066
0.295084
0.297224
0.297242
0.297276
0.297327
0.297394
0.297473
0.297564
0.297663
0.297767
0.297874
0.297982
0.298087
0.298187
0.298279
0.298363
0.298436
0.298497
0.298544
0.298576
0.298592
0.300089
0.300108
0.300145
0.300199
0.30027
0.300353
0.300448
0.300551
0.300659
0.300769
0.300877
0.300983
0.301082
0.301174
0.301256
0.301327
0.301385
0.30143
0.301461
0.301477
0.302288
0.302307
0.302346
0.302403
0.302476
0.302563
0.302661
0.302766
0.302877
0.302988
0.303098
0.303204
0.303303
0.303394
0.303474
0.303544
0.3036
0.303644
0.303674
0.303689
0.30378
0.3038
0.303839
0.303898
0.303973
0.304062
0.304162
0.304269
0.304381
0.304494
0.304604
0.30471
0.304809
0.304899
0.304979
0.305047
0.305103
0.305146
0.305175
0.30519
0.304535
0.304555
0.304596
0.304655
0.304731
0.304821
0.304922
0.30503
0.305142
0.305255
0.305366
0.305472
0.305571
0.305661
0.30574
0.305808
0.305863
0.305906
0.305934
0.305949
0.225057
0.22459
0.223992
0.223482
0.223077
0.22278
0.222573
0.222438
0.222382
0.222386
0.222443
0.222543
0.222704
0.222951
0.223282
0.223683
0.224152
0.224704
0.225324
0.225815
0.226218
0.22564
0.224983
0.224484
0.224091
0.223809
0.223615
0.223483
0.223437
0.223445
0.223506
0.223598
0.22375
0.223996
0.224326
0.224717
0.225169
0.22571
0.226384
0.226994
0.229224
0.228593
0.227949
0.227507
0.227145
0.226885
0.226713
0.226597
0.226572
0.226584
0.226644
0.226731
0.226879
0.227123
0.227439
0.227798
0.228212
0.228711
0.229374
0.230029
0.234359
0.233956
0.233494
0.23313
0.232833
0.232608
0.232462
0.23238
0.232366
0.232387
0.232444
0.232542
0.232698
0.232924
0.233202
0.233515
0.23388
0.234311
0.234808
0.23522
0.240502
0.240277
0.239983
0.239716
0.239493
0.239323
0.239212
0.239157
0.239153
0.239185
0.239251
0.239356
0.239509
0.23971
0.239951
0.240222
0.240526
0.240862
0.241199
0.24144
0.247011
0.246889
0.246711
0.246533
0.246379
0.246263
0.246189
0.246159
0.246168
0.246212
0.246288
0.246396
0.24654
0.246718
0.246925
0.247154
0.247399
0.247649
0.247875
0.24802
0.253577
0.253511
0.253407
0.253298
0.253202
0.253132
0.253093
0.253087
0.253113
0.253168
0.25325
0.253358
0.253493
0.253652
0.253829
0.254019
0.254214
0.2544
0.254556
0.254648
0.260053
0.260019
0.259963
0.259902
0.259852
0.259819
0.25981
0.259827
0.259869
0.259934
0.260021
0.260129
0.260256
0.260398
0.260551
0.26071
0.260865
0.261006
0.261117
0.26118
0.266361
0.266345
0.26632
0.266294
0.266278
0.266276
0.266292
0.266328
0.266385
0.266459
0.266551
0.266658
0.266778
0.266907
0.267041
0.267175
0.267301
0.267411
0.267494
0.267539
0.272445
0.272441
0.272436
0.272436
0.272445
0.272467
0.272504
0.272557
0.272626
0.27271
0.272806
0.272912
0.273026
0.273145
0.273265
0.27338
0.273485
0.273574
0.273639
0.273674
0.278259
0.278263
0.278272
0.278289
0.278317
0.278358
0.278412
0.27848
0.27856
0.278651
0.278751
0.278858
0.278968
0.279079
0.279188
0.27929
0.27938
0.279455
0.279508
0.279536
0.283752
0.283761
0.28378
0.283811
0.283854
0.283909
0.283977
0.284057
0.284147
0.284244
0.284348
0.284455
0.284563
0.284669
0.28477
0.284862
0.284942
0.285006
0.285051
0.285075
0.288869
0.288882
0.288909
0.28895
0.289004
0.289072
0.289151
0.289241
0.289339
0.289443
0.28955
0.289658
0.289764
0.289866
0.289961
0.290046
0.290118
0.290176
0.290216
0.290237
0.293551
0.293567
0.2936
0.293649
0.293713
0.29379
0.293879
0.293977
0.294082
0.294191
0.294301
0.294411
0.294516
0.294615
0.294706
0.294785
0.294852
0.294905
0.294941
0.29496
0.297734
0.297753
0.29779
0.297845
0.297917
0.298002
0.298099
0.298204
0.298315
0.298428
0.298542
0.298652
0.298757
0.298854
0.298941
0.299017
0.29908
0.299129
0.299163
0.29918
0.301354
0.301374
0.301415
0.301475
0.301552
0.301644
0.301747
0.301858
0.301974
0.302092
0.302207
0.302319
0.302423
0.302519
0.302604
0.302677
0.302737
0.302783
0.302814
0.302831
0.304345
0.304367
0.304411
0.304475
0.304557
0.304654
0.304762
0.304877
0.304997
0.305118
0.305235
0.305347
0.305452
0.305546
0.30563
0.3057
0.305758
0.305802
0.305832
0.305847
0.30665
0.306673
0.306719
0.306786
0.306871
0.306972
0.307084
0.307203
0.307325
0.307448
0.307567
0.30768
0.307784
0.307878
0.30796
0.308029
0.308085
0.308127
0.308156
0.308171
0.308219
0.308243
0.30829
0.308359
0.308447
0.30855
0.308664
0.308785
0.30891
0.309034
0.309154
0.309267
0.309371
0.309464
0.309545
0.309613
0.309668
0.309709
0.309737
0.309751
0.309015
0.309039
0.309087
0.309157
0.309245
0.30935
0.309465
0.309587
0.309713
0.309837
0.309958
0.310071
0.310175
0.310268
0.310348
0.310416
0.31047
0.310511
0.310538
0.310552
0.233816
0.233577
0.233233
0.232901
0.23262
0.232405
0.232254
0.232163
0.232131
0.232149
0.232212
0.232319
0.232475
0.232689
0.23296
0.233278
0.233637
0.234026
0.234405
0.234666
0.235069
0.23481
0.23446
0.234136
0.233866
0.233661
0.23352
0.233435
0.233408
0.23343
0.233495
0.2336
0.233753
0.233964
0.23423
0.234539
0.234888
0.235268
0.235655
0.235937
0.237767
0.237512
0.237183
0.23689
0.236645
0.236461
0.236337
0.236265
0.23625
0.236277
0.236344
0.236448
0.236598
0.236803
0.237056
0.237346
0.23767
0.238024
0.238392
0.238669
0.241912
0.241723
0.241466
0.241226
0.241024
0.24087
0.240769
0.240717
0.240714
0.240748
0.240818
0.240925
0.241073
0.241266
0.241497
0.241758
0.242046
0.242353
0.242653
0.242863
0.247043
0.246921
0.246743
0.246566
0.246413
0.246297
0.246224
0.246194
0.246203
0.246247
0.246323
0.246431
0.246575
0.246753
0.246959
0.247188
0.247433
0.247682
0.247908
0.248053
0.252742
0.252668
0.252554
0.252435
0.252331
0.252254
0.252211
0.252202
0.252226
0.25228
0.252361
0.252471
0.252607
0.252769
0.252952
0.253148
0.253351
0.253547
0.253713
0.253812
0.258725
0.258683
0.258616
0.258544
0.258482
0.258441
0.258426
0.258438
0.258477
0.258541
0.258629
0.258738
0.258868
0.259015
0.259176
0.259343
0.259509
0.259662
0.259785
0.259855
0.264816
0.264794
0.264759
0.264724
0.264697
0.264687
0.264697
0.264729
0.264783
0.264856
0.264949
0.265058
0.265182
0.265316
0.265458
0.265601
0.265738
0.265859
0.265952
0.266003
0.270895
0.270887
0.270876
0.270867
0.270869
0.270884
0.270916
0.270966
0.271033
0.271116
0.271214
0.271323
0.271441
0.271566
0.271693
0.271817
0.271932
0.27203
0.272102
0.272141
0.276877
0.276879
0.276884
0.276896
0.276919
0.276955
0.277006
0.277072
0.277152
0.277243
0.277345
0.277455
0.27757
0.277687
0.277802
0.277912
0.27801
0.278091
0.27815
0.278181
0.282687
0.282695
0.282712
0.28274
0.282781
0.282835
0.282902
0.282981
0.283072
0.283172
0.283278
0.283389
0.283502
0.283613
0.283719
0.283818
0.283904
0.283974
0.284023
0.284049
0.288253
0.288266
0.288292
0.288333
0.288387
0.288456
0.288537
0.288628
0.288729
0.288836
0.288948
0.28906
0.289171
0.289278
0.289378
0.289468
0.289545
0.289606
0.289649
0.289671
0.2935
0.293517