# vtk DataFile Version 2.0
Pressure 3D1D coupled problem
ASCII
DATASET UNSTRUCTURED_GRID
POINTS 9261 float
0 0 0
0 0 0.1
0 0 0.2
0 0 0.3
0 0 0.4
0 0 0.5
0 0 0.6
0 0 0.7
0 0 0.8
0 0 0.9
0 0 1
0 0 1.1
0 0 1.2
0 0 1.3
0 0 1.4
0 0 1.5
0 0 1.6
0 0 1.7
0 0 1.8
0 0 1.9
0 0 2
0 0.1 0
0 0.1 0.1
0 0.1 0.2
0 0.1 0.3
0 0.1 0.4
0 0.1 0.5
0 0.1 0.6
0 0.1 0.7
0 0.1 0.8
0 0.1 0.9
0 0.1 1
0 0.1 1.1
0 0.1 1.2
0 0.1 1.3
0 0.1 1.4
0 0.1 1.5
0 0.1 1.6
0 0.1 1.7
0 0.1 1.8
0 0.1 1.9
0 0.1 2
0 0.2 0
0 0.2 0.1
0 0.2 0.2
0 0.2 0.3
0 0.2 0.4
0 0.2 0.5
0 0.2 0.6
0 0.2 0.7
0 0.2 0.8
0 0.2 0.9
0 0.2 1
0 0.2 1.1
0 0.2 1.2
0 0.2 1.3
0 0.2 1.4
0 0.2 1.5
0 0.2 1.6
0 0.2 1.7
0 0.2 1.8
0 0.2 1.9
0 0.2 2
0 0.3 0
0 0.3 0.1
0 0.3 0.2
0 0.3 0.3
0 0.3 0.4
0 0.3 0.5
0 0.3 0.6
0 0.3 0.7
0 0.3 0.8
0 0.3 0.9
0 0.3 1
0 0.3 1.1
0 0.3 1.2
0 0.3 1.3
0 0.3 1.4
0 0.3 1.5
0 0.3 1.6
0 0.3 1.7
0 0.3 1.8
0 0.3 1.9
0 0.3 2
0 0.4 0
0 0.4 0.1
0 0.4 0.2
0 0.4 0.3
0 0.4 0.4
0 0.4 0.5
0 0.4 0.6
0 0.4 0.7
0 0.4 0.8
0 0.4 0.9
0 0.4 1
0 0.4 1.1
0 0.4 1.2
0 0.4 1.3
0 0.4 1.4
0 0.4 1.5
0 0.4 1.6
0 0.4 1.7
0 0.4 1.8
0 0.4 1.9
0 0.4 2
0 0.5 0
0 0.5 0.1
0 0.5 0.2
0 0.5 0.3
0 0.5 0.4
0 0.5 0.5
0 0.5 0.6
0 0.5 0.7
0 0.5 0.8
0 0.5 0.9
0 0.5 1
0 0.5 1.1
0 0.5 1.2
0 0.5 1.3
0 0.5 1.4
0 0.5 1.5
0 0.5 1.6
0 0.5 1.7
0 0.5 1.8
0 0.5 1.9
0 0.5 2
0 0.6 0
0 0.6 0.1
0 0.6 0.2
0 0.6 0.3
0 0.6 0.4
0 0.6 0.5
0 0.6 0.6
0 0.6 0.7
0 0.6 0.8
0 0.6 0.9
0 0.6 1
0 0.6 1.1
0 0.6 1.2
0 0.6 1.3
0 0.6 1.4
0 0.6 1.5
0 0.6 1.6
0 0.6 1.7
0 0.6 1.8
0 0.6 1.9
0 0.6 2
0 0.7 0
0 0.7 0.1
0 0.7 0.2
0 0.7 0.3
0 0.7 0.4
0 0.7 0.5
0 0.7 0.6
0 0.7 0.7
0 0.7 0.8
0 0.7 0.9
0 0.7 1
0 0.7 1.1
0 0.7 1.2
0 0.7 1.3
0 0.7 1.4
0 0.7 1.5
0 0.7 1.6
0 0.7 1.7
0 0.7 1.8
0 0.7 1.9
0 0.7 2
0 0.8 0
0 0.8 0.1
0 0.8 0.2
0 0.8 0.3
0 0.8 0.4
0 0.8 0.5
0 0.8 0.6
0 0.8 0.7
0 0.8 0.8
0 0.8 0.9
0 0.8 1
0 0.8 1.1
0 0.8 1.2
0 0.8 1.3
0 0.8 1.4
0 0.8 1.5
0 0.8 1.6
0 0.8 1.7
0 0.8 1.8
0 0.8 1.9
0 0.8 2
0 0.9 0
0 0.9 0.1
0 0.9 0.2
0 0.9 0.3
0 0.9 0.4
0 0.9 0.5
0 0.9 0.6
0 0.9 0.7
0 0.9 0.8
0 0.9 0.9
0 0.9 1
0 0.9 1.1
0 0.9 1.2
0 0.9 1.3
0 0.9 1.4
0 0.9 1.5
0 0.9 1.6
0 0.9 1.7
0 0.9 1.8
0 0.9 1.9
0 0.9 2
0 1 0
0 1 0.1
0 1 0.2
0 1 0.3
0 1 0.4
0 1 0.5
0 1 0.6
0 1 0.7
0 1 0.8
0 1 0.9
0 1 1
0 1 1.1
0 1 1.2
0 1 1.3
0 1 1.4
0 1 1.5
0 1 1.6
0 1 1.7
0 1 1.8
0 1 1.9
0 1 2
0 1.1 0
0 1.1 0.1
0 1.1 0.2
0 1.1 0.3
0 1.1 0.4
0 1.1 0.5
0 1.1 0.6
0 1.1 0.7
0 1.1 0.8
0 1.1 0.9
0 1.1 1
0 1.1 1.1
0 1.1 1.2
0 1.1 1.3
0 1.1 1.4
0 1.1 1.5
0 1.1 1.6
0 1.1 1.7
0 1.1 1.8
0 1.1 1.9
0 1.1 2
0 1.2 0
0 1.2 0.1
0 1.2 0.2
0 1.2 0.3
0 1.2 0.4
0 1.2 0.5
0 1.2 0.6
0 1.2 0.7
0 1.2 0.8
0 1.2 0.9
0 1.2 1
0 1.2 1.1
0 1.2 1.2
0 1.2 1.3
0 1.2 1.4
0 1.2 1.5
0 1.2 1.6
0 1.2 1.7
0 1.2 1.8
0 1.2 1.9
0 1.2 2
0 1.3 0
0 1.3 0.1
0 1.3 0.2
0 1.3 0.3
0 1.3 0.4
0 1.3 0.5
0 1.3 0.6
0 1.3 0.7
0 1.3 0.8
0 1.3 0.9
0 1.3 1
0 1.3 1.1
0 1.3 1.2
0 1.3 1.3
0 1.3 1.4
0 1.3 1.5
0 1.3 1.6
0 1.3 1.7
0 1.3 1.8
0 1.3 1.9
0 1.3 2
0 1.4 0
0 1.4 0.1
0 1.4 0.2
0 1.4 0.3
0 1.4 0.4
0 1.4 0.5
0 1.4 0.6
0 1.4 0.7
0 1.4 0.8
0 1.4 0.9
0 1.4 1
0 1.4 1.1
0 1.4 1.2
0 1.4 1.3
0 1.4 1.4
0 1.4 1.5
0 1.4 1.6
0 1.4 1.7
0 1.4 1.8
0 1.4 1.9
0 1.4 2
0 1.5 0
0 1.5 0.1
0 1.5 0.2
0 1.5 0.3
0 1.5 0.4
0 1.5 0.5
0 1.5 0.6
0 1.5 0.7
0 1.5 0.8
0 1.5 0.9
0 1.5 1
0 1.5 1.1
0 1.5 1.2
0 1.5 1.3
0 1.5 1.4
0 1.5 1.5
0 1.5 1.6
0 1.5 1.7
0 1.5 1.8
0 1.5 1.9
0 1.5 2
0 1.6 0
0 1.6 0.1
0 1.6 0.2
0 1.6 0.3
0 1.6 0.4
0 1.6 0.5
0 1.6 0.6
0 1.6 0.7
0 1.6 0.8
0 1.6 0.9
0 1.6 1
0 1.6 1.1
0 1.6 1.2
0 1.6 1.3
0 1.6 1.4
0 1.6 1.5
0 1.6 1.6
0 1.6 1.7
0 1.6 1.8
0 1.6 1.9
0 1.6 2
0 1.7 0
0 1.7 0.1
0 1.7 0.2
0 1.7 0.3
0 1.7 0.4
0 1.7 0.5
0 1.7 0.6
0 1.7 0.7
0 1.7 0.8
0 1.7 0.9
0 1.7 1
0 1.7 1.1
0 1.7 1.2
0 1.7 1.3
0 1.7 1.4
0 1.7 1.5
0 1.7 1.6
0 1.7 1.7
0 1.7 1.8
0 1.7 1.9
0 1.7 2
0 1.8 0
0 1.8 0.1
0 1.8 0.2
0 1.8 0.3
0 1.8 0.4
0 1.8 0.5
0 1.8 0.6
0 1.8 0.7
0 1.8 0.8
0 1.8 0.9
0 1.8 1
0 1.8 1.1
0 1.8 1.2
0 1.8 1.3
0 1.8 1.4
0 1.8 1.5
0 1.8 1.6
0 1.8 1.7
0 1.8 1.8
0 1.8 1.9
0 1.8 2
0 1.9 0
0 1.9 0.1
0 1.9 0.2
0 1.9 0.3
0 1.9 0.4
0 1.9 0.5
0 1.9 0.6
0 1.9 0.7
0 1.9 0.8
0 1.9 0.9
0 1.9 1
0 1.9 1.1
0 1.9 1.2
0 1.9 1.3
0 1.9 1.4
0 1.9 1.5
0 1.9 1.6
0 1.9 1.7
0 1.9 1.8
0 1.9 1.9
0 1.9 2
0 2 0
0 2 0.1
0 2 0.2
0 2 0.3
0 2 0.4
0 2 0.5
0 2 0.6
0 2 0.7
0 2 0.8
0 2 0.9
0 2 1
0 2 1.1
0 2 1.2
0 2 1.3
0 2 1.4
0 2 1.5
0 2 1.6
0 2 1.7
0 2 1.8
0 2 1.9
0 2 2
0.1 0 0
0.1 0 0.1
0.1 0 0.2
0.1 0 0.3
0.1 0 0.4
0.1 0 0.5
0.1 0 0.6
0.1 0 0.7
0.1 0 0.8
0.1 0 0.9
0.1 0 1
0.1 0 1.1
0.1 0 1.2
0.1 0 1.3
0.1 0 1.4
0.1 0 1.5
0.1 0 1.6
0.1 0 1.7
0.1 0 1.8
0.1 0 1.9
0.1 0 2
0.1 0.1 0
0.1 0.1 0.1
0.1 0.1 0.2
0.1 0.1 0.3
0.1 0.1 0.4
0.1 0.1 0.5
0.1 0.1 0.6
0.1 0.1 0.7
0.1 0.1 0.8
0.1 0.1 0.9
0.1 0.1 1
0.1 0.1 1.1
0.1 0.1 1.2
0.1 0.1 1.3
0.1 0.1 1.4
0.1 0.1 1.5
0.1 0.1 1.6
0.1 0.1 1.7
0.1 0.1 1.8
0.1 0.1 1.9
0.1 0.1 2
0.1 0.2 0
0.1 0.2 0.1
0.1 0.2 0.2
0.1 0.2 0.3
0.1 0.2 0.4
0.1 0.2 0.5
0.1 0.2 0.6
0.1 0.2 0.7
0.1 0.2 0.8
0.1 0.2 0.9
0.1 0.2 1
0.1 0.2 1.1
0.1 0.2 1.2
0.1 0.2 1.3
0.1 0.2 1.4
0.1 0.2 1.5
0.1 0.2 1.6
0.1 0.2 1.7
0.1 0.2 1.8
0.1 0.2 1.9
0.1 0.2 2
0.1 0.3 0
0.1 0.3 0.1
0.1 0.3 0.2
0.1 0.3 0.3
0.1 0.3 0.4
0.1 0.3 0.5
0.1 0.3 0.6
0.1 0.3 0.7
0.1 0.3 0.8
0.1 0.3 0.9
0.1 0.3 1
0.1 0.3 1.1
0.1 0.3 1.2
0.1 0.3 1.3
0.1 0.3 1.4
0.1 0.3 1.5
0.1 0.3 1.6
0.1 0.3 1.7
0.1 0.3 1.8
0.1 0.3 1.9
0.1 0.3 2
0.1 0.4 0
0.1 0.4 0.1
0.1 0.4 0.2
0.1 0.4 0.3
0.1 0.4 0.4
0.1 0.4 0.5
0.1 0.4 0.6
0.1 0.4 0.7
0.1 0.4 0.8
0.1 0.4 0.9
0.1 0.4 1
0.1 0.4 1.1
0.1 0.4 1.2
0.1 0.4 1.3
0.1 0.4 1.4
0.1 0.4 1.5
0.1 0.4 1.6
0.1 0.4 1.7
0.1 0.4 1.8
0.1 0.4 1.9
0.1 0.4 2
0.1 0.5 0
0.1 0.5 0.1
0.1 0.5 0.2
0.1 0.5 0.3
0.1 0.5 0.4
0.1 0.5 0.5
0.1 0.5 0.6
0.1 0.5 0.7
0.1 0.5 0.8
0.1 0.5 0.9
0.1 0.5 1
0.1 0.5 1.1
0.1 0.5 1.2
0.1 0.5 1.3
0.1 0.5 1.4
0.1 0.5 1.5
0.1 0.5 1.6
0.1 0.5 1.7
0.1 0.5 1.8
0.1 0.5 1.9
0.1 0.5 2
0.1 0.6 0
0.1 0.6 0.1
0.1 0.6 0.2
0.1 0.6 0.3
0.1 0.6 0.4
0.1 0.6 0.5
0.1 0.6 0.6
0.1 0.6 0.7
0.1 0.6 0.8
0.1 0.6 0.9
0.1 0.6 1
0.1 0.6 1.1
0.1 0.6 1.2
0.1 0.6 1.3
0.1 0.6 1.4
0.1 0.6 1.5
0.1 0.6 1.6
0.1 0.6 1.7
0.1 0.6 1.8
0.1 0.6 1.9
0.1 0.6 2
0.1 0.7 0
0.1 0.7 0.1
0.1 0.7 0.2
0.1 0.7 0.3
0.1 0.7 0.4
0.1 0.7 0.5
0.1 0.7 0.6
0.1 0.7 0.7
0.1 0.7 0.8
0.1 0.7 0.9
0.1 0.7 1
0.1 0.7 1.1
0.1 0.7 1.2
0.1 0.7 1.3
0.1 0.7 1.4
0.1 0.7 1.5
0.1 0.7 1.6
0.1 0.7 1.7
0.1 0.7 1.8
0.1 0.7 1.9
0.1 0.7 2
0.1 0.8 0
0.1 0.8 0.1
0.1 0.8 0.2
0.1 0.8 0.3
0.1 0.8 0.4
0.1 0.8 0.5
0.1 0.8 0.6
0.1 0.8 0.7
0.1 0.8 0.8
0.1 0.8 0.9
0.1 0.8 1
0.1 0.8 1.1
0.1 0.8 1.2
0.1 0.8 1.3
0.1 0.8 1.4
0.1 0.8 1.5
0.1 0.8 1.6
0.1 0.8 1.7
0.1 0.8 1.8
0.1 0.8 1.9
0.1 0.8 2
0.1 0.9 0
0.1 0.9 0.1
0.1 0.9 0.2
0.1 0.9 0.3
0.1 0.9 0.4
0.1 0.9 0.5
0.1 0.9 0.6
0.1 0.9 0.7
0.1 0.9 0.8
0.1 0.9 0.9
0.1 0.9 1
0.1 0.9 1.1
0.1 0.9 1.2
0.1 0.9 1.3
0.1 0.9 1.4
0.1 0.9 1.5
0.1 0.9 1.6
0.1 0.9 1.7
0.1 0.9 1.8
0.1 0.9 1.9
0.1 0.9 2
0.1 1 0
0.1 1 0.1
0.1 1 0.2
0.1 1 0.3
0.1 1 0.4
0.1 1 0.5
0.1 1 0.6
0.1 1 0.7
0.1 1 0.8
0.1 1 0.9
0.1 1 1
0.1 1 1.1
0.1 1 1.2
0.1 1 1.3
0.1 1 1.4
0.1 1 1.5
0.1 1 1.6
0.1 1 1.7
0.1 1 1.8
0.1 1 1.9
0.1 1 2
0.1 1.1 0
0.1 1.1 0.1
0.1 1.1 0.2
0.1 1.1 0.3
0.1 1.1 0.4
0.1 1.1 0.5
0.1 1.1 0.6
0.1 1.1 0.7
0.1 1.1 0.8
0.1 1.1 0.9
0.1 1.1 1
0.1 1.1 1.1
0.1 1.1 1.2
0.1 1.1 1.3
0.1 1.1 1.4
0.1 1.1 1.5
0.1 1.1 1.6
0.1 1.1 1.7
0.1 1.1 1.8
0.1 1.1 1.9
0.1 1.1 2
0.1 1.2 0
0.1 1.2 0.1
0.1 1.2 0.2
0.1 1.2 0.3
0.1 1.2 0.4
0.1 1.2 0.5
0.1 1.2 0.6
0.1 1.2 0.7
0.1 1.2 0.8
0.1 1.2 0.9
0.1 1.2 1
0.1 1.2 1.1
0.1 1.2 1.2
0.1 1.2 1.3
0.1 1.2 1.4
0.1 1.2 1.5
0.1 1.2 1.6
0.1 1.2 1.7
0.1 1.2 1.8
0.1 1.2 1.9
0.1 1.2 2
0.1 1.3 0
0.1 1.3 0.1
0.1 1.3 0.2
0.1 1.3 0.3
0.1 1.3 0.4
0.1 1.3 0.5
0.1 1.3 0.6
0.1 1.3 0.7
0.1 1.3 0.8
0.1 1.3 0.9
0.1 1.3 1
0.1 1.3 1.1
0.1 1.3 1.2
0.1 1.3 1.3
0.1 1.3 1.4
0.1 1.3 1.5
0.1 1.3 1.6
0.1 1.3 1.7
0.1 1.3 1.8
0.1 1.3 1.9
0.1 1.3 2
0.1 1.4 0
0.1 1.4 0.1
0.1 1.4 0.2
0.1 1.4 0.3
0.1 1.4 0.4
0.1 1.4 0.5
0.1 1.4 0.6
0.1 1.4 0.7
0.1 1.4 0.8
0.1 1.4 0.9
0.1 1.4 1
0.1 1.4 1.1
0.1 1.4 1.2
0.1 1.4 1.3
0.1 1.4 1.4
0.1 1.4 1.5
0.1 1.4 1.6
0.1 1.4 1.7
0.1 1.4 1.8
0.1 1.4 1.9
0.1 1.4 2
0.1 1.5 0
0.1 1.5 0.1
0.1 1.5 0.2
0.1 1.5 0.3
0.1 1.5 0.4
0.1 1.5 0.5
0.1 1.5 0.6
0.1 1.5 0.7
0.1 1.5 0.8
0.1 1.5 0.9
0.1 1.5 1
0.1 1.5 1.1
0.1 1.5 1.2
0.1 1.5 1.3
0.1 1.5 1.4
0.1 1.5 1.5
0.1 1.5 1.6
0.1 1.5 1.7
0.1 1.5 1.8
0.1 1.5 1.9
0.1 1.5 2
0.1 1.6 0
0.1 1.6 0.1
0.1 1.6 0.2
0.1 1.6 0.3
0.1 1.6 0.4
0.1 1.6 0.5
0.1 1.6 0.6
0.1 1.6 0.7
0.1 1.6 0.8
0.1 1.6 0.9
0.1 1.6 1
0.1 1.6 1.1
0.1 1.6 1.2
0.1 1.6 1.3
0.1 1.6 1.4
0.1 1.6 1.5
0.1 1.6 1.6
0.1 1.6 1.7
0.1 1.6 1.8
0.1 1.6 1.9
0.1 1.6 2
0.1 1.7 0
0.1 1.7 0.1
0.1 1.7 0.2
0.1 1.7 0.3
0.1 1.7 0.4
0.1 1.7 0.5
0.1 1.7 0.6
0.1 1.7 0.7
0.1 1.7 0.8
0.1 1.7 0.9
0.1 1.7 1
0.1 1.7 1.1
0.1 1.7 1.2
0.1 1.7 1.3
0.1 1.7 1.4
0.1 1.7 1.5
0.1 1.7 1.6
0.1 1.7 1.7
0.1 1.7 1.8
0.1 1.7 1.9
0.1 1.7 2
0.1 1.8 0
0.1 1.8 0.1
0.1 1.8 0.2
0.1 1.8 0.3
0.1 1.8 0.4
0.1 1.8 0.5
0.1 1.8 0.6
0.1 1.8 0.7
0.1 1.8 0.8
0.1 1.8 0.9
0.1 1.8 1
0.1 1.8 1.1
0.1 1.8 1.2
0.1 1.8 1.3
0.1 1.8 1.4
0.1 1.8 1.5
0.1 1.8 1.6
0.1 1.8 1.7
0.1 1.8 1.8
0.1 1.8 1.9
0.1 1.8 2
0.1 1.9 0
0.1 1.9 0.1
0.1 1.9 0.2
0.1 1.9 0.3
0.1 1.9 0.4
0.1 1.9 0.5
0.1 1.9 0.6
0.1 1.9 0.7
0.1 1.9 0.8
0.1 1.9 0.9
0.1 1.9 1
0.1 1.9 1.1
0.1 1.9 1.2
0.1 1.9 1.3
0.1 1.9 1.4
0.1 1.9 1.5
0.1 1.9 1.6
0.1 1.9 1.7
0.1 1.9 1.8
0.1 1.9 1.9
0.1 1.9 2
0.1 2 0
0.1 2 0.1
0.1 2 0.2
0.1 2 0.3
0.1 2 0.4
0.1 2 0.5
0.1 2 0.6
0.1 2 0.7
0.1 2 0.8
0.1 2 0.9
0.1 2 1
0.1 2 1.1
0.1 2 1.2
0.1 2 1.3
0.1 2 1.4
0.1 2 1.5
0.1 2 1.6
0.1 2 1.7
0.1 2 1.8
0.1 2 1.9
0.1 2 2
0.2 0 0
0.2 0 0.1
0.2 0 0.2
0.2 0 0.3
0.2 0 0.4
0.2 0 0.5
0.2 0 0.6
0.2 0 0.7
0.2 0 0.8
0.2 0 0.9
0.2 0 1
0.2 0 1.1
0.2 0 1.2
0.2 0 1.3
0.2 0 1.4
0.2 0 1.5
0.2 0 1.6
0.2 0 1.7
0.2 0 1.8
0.2 0 1.9
0.2 0 2
0.2 0.1 0
0.2 0.1 0.1
0.2 0.1 0.2
0.2 0.1 0.3
0.2 0.1 0.4
0.2 0.1 0.5
0.2 0.1 0.6
0.2 0.1 0.7
0.2 0.1 0.8
0.2 0.1 0.9
0.2 0.1 1
0.2 0.1 1.1
0.2 0.1 1.2
0.2 0.1 1.3
0.2 0.1 1.4
0.2 0.1 1.5
0.2 0.1 1.6
0.2 0.1 1.7
0.2 0.1 1.8
0.2 0.1 1.9
0.2 0.1 2
0.2 0.2 0
0.2 0.2 0.1
0.2 0.2 0.2
0.2 0.2 0.3
0.2 0.2 0.4
0.2 0.2 0.5
0.2 0.2 0.6
0.2 0.2 0.7
0.2 0.2 0.8
0.2 0.2 0.9
0.2 0.2 1
0.2 0.2 1.1
0.2 0.2 1.2
0.2 0.2 1.3
0.2 0.2 1.4
0.2 0.2 1.5
0.2 0.2 1.6
0.2 0.2 1.7
0.2 0.2 1.8
0.2 0.2 1.9
[...]
CELL_DATA 8000
SCALARS Phi_sigma_(3D) float 1
LOOKUP_TABLE default
0.0419428
0.0415879
0.0412007
0.0409216
0.0407067
0.0405508
0.0404476
0.0403796
0.0403506
0.0403321
0.0403252
0.040332
0.0403714
0.0404589
0.0405825
0.0407335
0.0409334
0.0412107
0.0415865
0.0419313
0.0423693
0.0418474
0.0413858
0.0411266
0.0409123
0.0407576
0.0406622
0.0405924
0.0405783
0.0405588
0.0405501
0.0405472
0.0405798
0.0406745
0.0408034
0.040944
0.041131
0.0414007
0.0418458
0.0423516
0.0439994
0.0434893
0.0430427
0.0428034
0.0426105
0.0424806
0.0423976
0.0423261
0.0423102
0.0422954
0.0422996
0.0422973
0.0423204
0.0424043
0.0425274
0.0426678
0.0428394
0.0430795
0.0435046
0.0440219
0.0469477
0.0466668
0.046362
0.0461537
0.0460023
0.045906
0.0458357
0.0457745
0.0457468
0.0457397
0.045756
0.0457663
0.0457894
0.0458517
0.0459535
0.0460872
0.0462393
0.046434
0.0467241
0.0470314
0.0504154
0.0502753
0.0500981
0.0499516
0.0498398
0.0497616
0.0497052
0.0496635
0.0496426
0.0496389
0.0496505
0.0496679
0.049698
0.0497522
0.0498324
0.0499356
0.0500566
0.0502025
0.0503783
0.0505288
0.0540127
0.0539429
0.0538439
0.0537504
0.0536737
0.0536164
0.0535755
0.0535484
0.0535357
0.0535357
0.053547
0.0535669
0.053598
0.0536444
0.0537071
0.0537847
0.0538745
0.0539751
0.0540786
0.0541536
0.0576309
0.0575954
0.057541
0.0574848
0.057436
0.0573984
0.0573721
0.0573566
0.0573513
0.0573555
0.0573682
0.0573886
0.0574176
0.0574565
0.0575054
0.0575632
0.0576275
0.0576946
0.0577564
0.0577963
0.0612409
0.0612228
0.0611938
0.0611623
0.0611343
0.061113
0.0610993
0.0610933
0.0610947
0.0611029
0.0611173
0.0611375
0.0611636
0.0611958
0.061234
0.0612769
0.0613224
0.0613671
0.061405
0.0614278
0.0648275
0.0648189
0.0648049
0.0647897
0.0647767
0.0647681
0.0647647
0.0647668
0.0647739
0.0647858
0.0648017
0.0648215
0.0648449
0.0648718
0.0649017
0.0649336
0.0649658
0.0649959
0.06502
0.0650338
0.0683702
0.0683671
0.0683623
0.068358
0.0683558
0.068357
0.0683619
0.0683707
0.0683828
0.0683978
0.0684152
0.0684347
0.0684559
0.0684786
0.0685023
0.0685262
0.0685493
0.0685698
0.0685855
0.0685942
0.0718376
0.0718379
0.0718393
0.0718424
0.0718481
0.0718568
0.0718685
0.0718827
0.071899
0.0719168
0.0719357
0.071955
0.0719746
0.071994
0.0720131
0.0720313
0.072048
0.0720622
0.0720727
0.0720783
0.0751883
0.075191
0.0751965
0.075205
0.0752167
0.0752312
0.0752482
0.075267
0.0752869
0.0753072
0.0753273
0.0753467
0.075365
0.0753822
0.0753979
0.075412
0.0754242
0.0754341
0.0754411
0.0754448
0.0783729
0.0783772
0.0783857
0.0783982
0.0784144
0.0784335
0.0784549
0.0784775
0.0785005
0.078523
0.0785442
0.0785638
0.0785813
0.0785967
0.0786099
0.078621
0.07863
0.0786369
0.0786417
0.0786441
0.081336
0.0813414
0.0813522
0.0813679
0.0813876
0.0814105
0.0814354
0.0814612
0.0814868
0.0815112
0.0815335
0.0815533
0.0815702
0.0815843
0.0815956
0.0816045
0.0816112
0.081616
0.0816191
0.0816207
0.0840194
0.0840258
0.0840383
0.0840564
0.084079
0.0841049
0.0841328
0.0841613
0.0841891
0.0842151
0.0842384
0.0842584
0.084275
0.0842881
0.0842979
0.0843051
0.08431
0.0843133
0.0843152
0.0843161
0.0863652
0.0863723
0.0863863
0.0864063
0.0864312
0.0864596
0.0864899
0.0865206
0.0865502
0.0865776
0.0866016
0.0866219
0.0866382
0.0866505
0.0866593
0.0866651
0.0866687
0.0866707
0.0866718
0.0866722
0.0883187
0.0883264
0.0883415
0.088363
0.0883897
0.08842
0.0884522
0.0884847
0.0885158
0.0885442
0.0885689
0.0885894
0.0886055
0.0886172
0.0886251
0.0886299
0.0886325
0.0886336
0.088634
0.0886341
0.0898315
0.0898396
0.0898555
0.0898781
0.0899061
0.0899379
0.0899715
0.0900053
0.0900375
0.0900667
0.0900919
0.0901126
0.0901284
0.0901397
0.090147
0.0901511
0.0901529
0.0901534
0.0901532
0.0901531
0.090864
0.0908724
0.0908888
0.0909121
0.090941
0.0909738
0.0910084
0.091043
0.0910759
0.0911057
0.0911312
0.0911519
0.0911677
0.0911787
0.0911855
0.0911891
0.0911904
0.0911904
0.0911899
0.0911896
0.091388
0.0913965
0.0914131
0.0914369
0.0914662
0.0914994
0.0915345
0.0915695
0.0916028
0.0916328
0.0916585
0.0916793
0.0916949
0.0917057
0.0917124
0.0917157
0.0917167
0.0917165
0.0917159
0.0917155
0.0424074
0.0418933
0.041436
0.0411775
0.0409647
0.0408123
0.0407174
0.0406467
0.0406312
0.0406122
0.0406052
0.0406029
0.0406346
0.0407279
0.0408566
0.0409987
0.0411855
0.0414527
0.0418931
0.0423944
0.0422299
0.040942
0.040243
0.0401384
0.0398856
0.039706
0.0396384
0.0395376
0.0396007
0.0395595
0.0395408
0.0394982
0.0395074
0.0396492
0.0398133
0.0399112
0.0400664
0.0402687
0.0409225
0.0421498
0.0437541
0.0424479
0.041725
0.0416321
0.0414
0.0412762
0.0412267
0.0410983
0.0411459
0.0411104
0.0411411
0.0410945
0.0410731
0.0411904
0.0413525
0.0414873
0.0416279
0.04177
0.0424074
0.0437611
0.0473044
0.0468521
0.0464379
0.0462359
0.0460863
0.0460323
0.0459764
0.045881
0.0458471
0.0458414
0.0459033
0.0459005
0.0458903
0.0459398
0.0460504
0.0462228
0.0463639
0.0465114
0.0468623
0.0474427
0.051052
0.0508781
0.0506808
0.0505373
0.0504293
0.0503587
0.0503066
0.0502632
0.050244
0.0502417
0.0502583
0.0502732
0.0502985
0.0503509
0.0504312
0.0505352
0.0506507
0.0507895
0.0509804
0.0511754
0.0547171
0.0546419
0.0545411
0.0544507
0.0543773
0.0543234
0.0542852
0.0542599
0.054249
0.0542502
0.0542621
0.0542815
0.0543117
0.0543573
0.0544186
0.0544937
0.0545799
0.0546776
0.0547826
0.0548639
0.0583556
0.0583201
0.058267
0.0582135
0.0581675
0.0581323
0.0581082
0.0580945
0.0580908
0.0580959
0.058109
0.0581294
0.0581581
0.0581963
0.0582438
0.0582996
0.0583615
0.0584265
0.0584871
0.0585272
0.0619855
0.0619682
0.0619407
0.0619113
0.0618855
0.0618662
0.0618544
0.06185
0.0618527
0.0618618
0.0618767
0.061897
0.0619229
0.0619547
0.0619918
0.0620332
0.0620771
0.0621202
0.062157
0.0621791
0.0656034
0.0655954
0.0655827
0.0655691
0.0655579
0.0655511
0.0655494
0.0655529
0.0655613
0.065574
0.0655906
0.0656106
0.0656339
0.0656604
0.0656896
0.0657205
0.0657516
0.0657805
0.0658037
0.0658169
0.0691895
0.069187
0.0691833
0.0691803
0.0691798
0.0691826
0.0691891
0.0691993
0.0692126
0.0692286
0.0692466
0.0692664
0.0692877
0.0693101
0.0693332
0.0693564
0.0693786
0.0693982
0.0694133
0.0694216
0.0727108
0.0727116
0.0727139
0.0727184
0.0727256
0.0727359
0.0727492
0.0727649
0.0727825
0.0728013
0.0728208
0.0728406
0.0728602
0.0728795
0.0728981
0.0729157
0.0729317
0.0729452
0.0729551
0.0729605
0.076123
0.0761261
0.0761326
0.0761424
0.0761556
0.0761718
0.0761905
0.0762108
0.0762321
0.0762535
0.0762744
0.0762942
0.0763127
0.0763297
0.076345
0.0763585
0.0763701
0.0763794
0.076386
0.0763894
0.0793735
0.0793783
0.0793878
0.0794018
0.0794196
0.0794405
0.0794637
0.079488
0.0795125
0.0795362
0.0795583
0.0795784
0.079596
0.0796112
0.079624
0.0796346
0.0796429
0.0796493
0.0796536
0.0796558
0.0824041
0.0824101
0.082422
0.0824391
0.0824607
0.0824855
0.0825125
0.0825402
0.0825674
0.0825931
0.0826163
0.0826367
0.0826538
0.0826676
0.0826785
0.0826867
0.0826927
0.0826969
0.0826996
0.0827009
0.0851533
0.0851603
0.0851741
0.0851938
0.0852184
0.0852465
0.0852766
0.0853071
0.0853367
0.0853641
0.0853884
0.085409
0.0854257
0.0854386
0.0854479
0.0854544
0.0854586
0.0854611
0.0854625
0.0854631
0.0875602
0.087568
0.0875832
0.087605
0.0876321
0.0876628
0.0876955
0.0877284
0.08776
0.0877889
0.087814
0.0878349
0.0878513
0.0878633
0.0878715
0.0878766
0.0878793
0.0878806
0.087881
0.0878812
0.0895669
0.0895753
0.0895918
0.0896152
0.0896442
0.0896771
0.0897118
0.0897467
0.0897798
0.0898099
0.0898358
0.0898569
0.089873
0.0898844
0.0898917
0.0898956
0.0898973
0.0898975
0.0898972
0.089897
0.0911223
0.0911312
0.0911485
0.0911732
0.0912037
0.0912381
0.0912745
0.0913107
0.0913451
0.091376
0.0914024
0.0914237
0.0914397
0.0914506
0.0914571
0.0914603
0.091461
0.0914605
0.0914597
0.0914592
0.0921847
0.0921938
0.0922117
0.0922372
0.0922687
0.0923042
0.0923416
0.0923788
0.0924139
0.0924455
0.0924722
0.0924936
0.0925094
0.09252
0.0925261
0.0925286
0.0925288
0.0925278
0.0925266
0.0925259
0.092724
0.0927333
0.0927515
0.0927774
0.0928093
0.0928453
0.0928833
0.0929209
0.0929565
0.0929883
0.0930152
0.0930366
0.0930524
0.0930628
0.0930686
0.0930709
0.0930708
0.0930695
0.0930681
0.0930673
0.0441066
0.0436312
0.043198
0.0429564
0.0427682
0.0426475
0.0425659
0.0424905
0.0424682
0.0424552
0.0424674
0.0424671
0.0424865
0.0425644
0.0426865
0.0428346
0.0430065
0.0432389
0.0436474
0.0441467
0.0438611
0.0426879
0.0419747
0.0418423
0.041624
0.0415438
0.0414972
0.0413481
0.0413634
0.0413357
0.0414088
0.0413668
0.0413255
0.0414151
0.0415734
0.0417557
0.041901
0.0420214
0.0426203
0.0439413
0.0454826
0.0442638
0.0435864
0.0435022
0.0432913
0.0431769
0.0431322
0.0430169
0.0430642
0.0430333
0.0430605
0.0430177
0.0430002
0.0431121
0.0432638
0.0433858
0.043513
0.0436464
0.0442482
0.0455081
0.0489782
0.0484291
0.0480862
0.0479692
0.0478152
0.0476694
0.0476071
0.0475806
0.0476136
0.0475972
0.0475541
0.0475505
0.0475969
0.0477007
0.0478034
0.0478531
0.0479734
0.0481718
0.0485368
0.0489798
0.0525818
0.0524008
0.0522249
0.0521063
0.0520054
0.0519258
0.0518769
0.0518497
0.0518454
0.0518422
0.0518422
0.051856
0.0518911
0.0519514
0.0520249
0.0521028
0.0522057
0.052343
0.0525246
0.0526917
0.0561861
0.0561142
0.0560237
0.0559446
0.0558785
0.055828
0.0557943
0.0557753
0.0557696
0.055772
0.0557819
0.0558011
0.0558325
0.0558779
0.0559348
0.0560011
0.0560795
0.0561705
0.0562676
0.0563403
0.0598111
0.0597787
0.0597316
0.0596847
0.0596444
0.0596138
0.0595939
0.0595841
0.0595835
0.0595903
0.0596038
0.0596244
0.0596528
0.0596897
0.0597343
0.0597855
0.0598424
0.0599022
0.0599577
0.0599941
0.0634675
0.0634523
0.0634286
0.0634037
0.0633823
0.0633671
0.0633589
0.0633577
0.0633629
0.0633737
0.0633896
0.0634102
0.0634358
0.0634664
0.0635015
0.06354
0.0635805
0.0636202
0.0636538
0.063674
0.0671461
0.0671397
0.0671295
0.0671193
0.0671117
0.0671084
0.06711
0.0671164
0.0671272
0.0671417
0.0671594
0.0671799
0.067203
0.0672287
0.0672563
0.0672852
0.067314
0.0673406
0.0673618
0.0673739
0.0708208
0.0708194
0.0708179
0.0708177
0.0708203
0.0708264
0.0708361
0.0708491
0.0708648
0.0708826
0.070902
0.0709224
0.0709436
0.0709654
0.0709874
0.071009
0.0710295
0.0710475
0.0710612
0.0710688
0.0744522
0.0744541
0.0744583
0.0744654
0.0744757
0.0744892
0.0745056
0.0745243
0.0745444
0.0745653
0.0745862
0.0746067
0.0746264
0.0746452
0.0746629
0.0746793
0.0746938
0.074706
0.0747149
0.0747196
0.07799
0.0779941
0.0780025
0.078015
0.0780313
0.0780509
0.078073
0.0780965
0.0781205
0.0781441
0.0781666
0.0781873
0.0782059
0.0782225
0.0782369
0.0782492
0.0782595
0.0782676
0.0782732
0.0782761
0.0813754
0.0813812
0.0813928
0.0814095
0.0814308
0.0814554
0.0814823
0.0815101
0.0815376
0.0815637
0.0815875
0.0816085
0.0816264
0.0816412
0.081653
0.0816623
0.0816693
0.0816744
0.0816778
0.0816794
0.0845438
0.0845511
0.0845652
0.0845854
0.0846107
0.0846396
0.0846706
0.0847021
0.0847327
0.084761
0.0847861
0.0848075
0.0848248
0.0848382
0.084848
0.0848549
0.0848594
0.0848622
0.0848638
0.0848645
0.0874277
0.087436
0.0874522
0.0874753
0.087504
0.0875366
0.0875711
0.0876059
0.0876391
0.0876694
0.0876957
0.0877174
0.0877343
0.0877466
0.0877548
0.0877597
0.0877622
0.0877632
0.0877634
0.0877634
0.0899595
0.0899687
0.0899866
0.0900121
0.0900437
0.0900793
0.0901169
0.0901543
0.0901898
0.0902218
0.0902492
0.0902712
0.0902877
0.0902991
0.0903059
0.0903092
0.0903101
0.0903096
0.0903087
0.0903082
0.0920752
0.0920851
0.0921045
0.092132
0.0921658
0.0922039
0.0922439
0.0922836
0.092321
0.0923544
0.0923825
0.0924048
0.0924211
0.0924317
0.0924374
0.0924394
0.0924389
0.0924373
0.0924356
0.0924345
0.0937181
0.0937286
0.093749
0.0937779
0.0938135
0.0938535
0.0938954
0.0939368
0.0939756
0.09401
0.0940388
0.0940613
0.0940773
0.0940873
0.0940922
0.0940932
0.0940917
0.0940892
0.0940868
0.0940854
0.0948416
0.0948525
0.0948736
0.0949035
0.0949403
0.0949816
0.0950247
0.0950673
0.0951071
0.0951422
0.0951714
0.0951939
0.0952098
0.0952194
0.0952236
0.0952239
0.0952218
0.0952186
0.0952157
0.0952141
0.0954124
0.0954235
0.095445
0.0954754
0.0955128
0.0955547
0.0955985
0.0956416
0.0956818
0.0957173
0.0957467
0.0957693
0.095785
0.0957944
0.0957983
0.0957983
0.0957957
0.0957923
0.0957892
0.0957874
0.0470924
0.0468313
0.0465478
0.0463482
0.0461983
0.0460952
0.0460236
0.0459693
0.0459458
0.0459376
0.0459455
0.0459568
0.045986
0.046052
0.046151
0.0462747
0.0464242
0.0466204
0.0468964
0.0471669
0.0475003
0.0470823
0.0467217
0.0465363
0.0463861
0.0462919
0.0462284
0.0461648
0.0461501
0.0461419
0.0461581
0.04616
0.0461771
0.0462457
0.0463515
0.0464768
0.046616
0.0467976
0.0471375
0.0475817
0.0489144
0.0483638
0.0479793
0.0478435
0.0476952
0.0476011
0.0475485
0.047485
0.0474915
0.0474794
0.0474923
0.047486
0.0475001
0.0475776
0.047684
0.0477905
0.0479127
0.0480669
0.0484256
0.0489919
0.05172
0.0514602
0.0512318
0.0511004
0.0509871
0.0508995
0.0508476
0.0508166
0.0508157
0.0508108
0.050809
0.0508185
0.050852
0.0509182
0.0509989
0.0510806
0.0511896
0.0513419
0.0515727
0.0518168
0.0549434
0.0548296
0.0547022
0.0546037
0.0545229
0.0544611
0.0544215
0.0543998
0.0543947
0.0543953
0.0544019
0.0544191
0.0544522
0.0545035
0.054567
0.054639
0.0547282
0.0548399
0.0549731
0.0550836
0.0583804
0.0583283
0.058259
0.0581954
0.0581423
0.0581019
0.0580757
0.0580623
0.0580601
0.0580653
0.0580772
0.0580973
0.0581277
0.0581692
0.0582199
0.0582786
0.0583464
0.0584227
0.0584998
0.0585542
0.061963
0.0619382
0.0619015
0.0618646
0.0618332
0.0618101
0.0617963
0.0617914
0.0617944
0.0618038
0.0618189
0.0618399
0.0618675
0.0619019
0.0619423
0.0619878
0.0620375
0.0620887
0.0621349
0.0621642
0.0656578
0.0656463
0.0656285
0.0656103
0.0655954
0.0655862
0.0655832
0.0655864
0.0655952
0.0656085
0.0656259
0.065647
0.0656721
0.0657009
0.065733
0.0657675
0.0658033
0.0658376
0.0658664
0.0658833
0.0694324
0.0694282
0.0694221
0.0694168
0.0694145
0.0694164
0.0694228
0.0694334
0.0694476
0.0694646
0.069484
0.0695052
0.069528
0.0695524
0.0695779
0.0696039
0.0696293
0.0696525
0.0696707
0.0696811
0.0732465
0.0732469
0.0732485
0.0732525
0.0732598
0.0732707
0.0732851
0.0733023
0.0733216
0.0733421
0.0733633
0.0733846
0.0734058
0.0734266
0.0734469
0.0734663
0.0734842
0.0734997
0.0735114
0.0735178
0.0770499
0.0770534
0.0770605
0.0770715
0.0770864
0.0771049
0.0771261
0.0771492
0.0771731
0.077197
0.07722
0.0772415
0.0772614
0.0772794
0.0772956
0.07731
0.0773223
0.0773324
0.0773397
0.0773435
0.080783
0.0807887
0.0808
0.0808166
0.0808378
0.0808626
0.0808899
0.0809183
0.0809465
0.0809734
0.0809981
0.08102
0.0810389
0.0810547
0.0810676
0.081078
0.0810862
0.0810923
0.0810964
0.0810985
0.0843779
0.0843854
0.0844002
0.0844214
0.0844479
0.0844783
0.0845109
0.084544
0.0845761
0.0846059
0.0846323
0.0846546
0.0846727
0.0846867
0.084697
0.0847042
0.084709
0.084712
0.0847137
0.0847146
0.0877606
0.0877697
0.0877873
0.0878125
0.0878436
0.0878789
0.0879163
0.0879538
0.0879894
0.0880218
0.0880497
0.0880726
0.0880901
0.0881025
0.0881106
0.0881151
0.0881171
0.0881176
0.0881174
0.0881172
0.0908539
0.0908643
0.0908844
0.090913
0.0909482
0.0909878
0.0910294
0.0910707
0.0911096
0.0911443
0.0911737
0.0911969
0.091214
0.0912251
0.0912312
0.0912334
0.091233
0.0912314
0.0912297
0.0912286
0.0935803
0.0935918
0.093614
0.0936456
0.0936843
0.0937276
0.093773
0.0938176
0.0938593
0.0938961
0.0939266
0.0939503
0.0939668
0.0939769
0.0939813
0.0939815
0.0939791
0.0939757
0.0939726
0.0939708
0.0958662
0.0958786
0.0959026
0.0959366
0.0959783
0.0960247
0.0960731
0.0961205
0.0961645
0.096203
0.0962346
0.0962585
0.0962747
0.0962837
0.0962868
0.0962853
0.0962812
0.0962763
0.0962721
0.0962697
0.0976458
0.097659
0.0976844
0.0977203
0.0977641
0.097813
0.0978638
0.0979134
0.0979591
0.0979989
0.0980313
0.0980554
0.0980713
0.0980795
0.0980814
0.0980786
0.0980732
0.0980671
0.098062
0.0980592
0.0988652
0.0988788
0.0989051
0.0989423
0.0989877
0.0990383
0.0990906
0.0991417
0.0991887
0.0992294
0.0992622
0.0992864
0.099302
0.0993097
0.0993108
0.0993071
0.0993007
0.0992938
0.0992881
0.0992849
0.0994853
0.0994992
0.099526
0.0995639
0.0996101
0.0996614
0.0997146
0.0997664
0.099814
0.0998551
0.0998882
0.0999125
0.0999279
0.0999353
0.099936
0.0999318
0.0999249
0.0999176
0.0999115
0.0999082
0.0505278
0.0503966
0.0502304
0.0500901
0.0499798
0.0498992
0.0498425
0.049804
0.0497854
0.049781
0.0497891
0.0498066
0.0498394
0.0498952
0.0499735
0.0500715
0.0501898
0.0503337
0.0505008
0.050636
0.0511548
0.0509909
0.050807
0.0506698
0.0505626
0.0504862
0.0504332
0.0503953
0.0503798
0.0503766
0.050386
0.0504014
0.0504315
0.0504871
0.0505653
0.0506608
0.0507742
0.0509153
0.0510983
0.0512685
0.052603
0.0524228
0.0522419
0.0521206
0.0520222
0.0519518
0.0519052
0.0518719
0.0518626
0.0518608
0.0518699
0.0518839
0.0519131
0.0519683
0.0520427
0.0521293
0.0522323
0.0523617
0.0525423
0.0527266
0.0549534
0.0548396
0.0547113
0.0546124
0.0545324
0.0544725
0.0544334
0.0544106
0.0544045
0.0544055
0.0544138
0.0544311
0.0544629
0.0545131
0.0545768
0.0546504
0.0547395
0.0548499
0.054983
0.0550966
0.0578737
0.0578116
0.0577314
0.0576605
0.0576022
0.0575583
0.0575299
0.057515
0.0575122
0.0575168
0.0575283
0.0575482
0.057579
0.0576222
0.0576754
0.0577371
0.0578094
0.0578927
0.0579801
0.0580443
0.0611688
0.0611362
0.0610896
0.0610444
0.0610065
0.0609785
0.0609614
0.0609544
0.0609563
0.0609649
0.0609795
0.0610006
0.0610293
0.061066
0.0611098
0.0611596
0.0612151
0.0612744
0.0613301
0.0613667
0.064734
0.0647176
0.0646928
0.0646677
0.064647
0.0646331
0.0646269
0.0646279
0.0646353
0.0646479
0.064665
0.0646866
0.064713
0.0647442
0.0647797
0.0648186
0.0648599
0.064901
0.0649365
0.0649582
0.068504
0.0684969
0.0684862
0.068476
0.0684692
0.0684674
0.068471
0.0684798
0.0684928
0.0685094
0.0685287
0.0685506
0.0685749
0.0686014
0.0686299
0.0686597
0.0686897
0.0687178
0.0687407
0.0687539
0.0724242
0.0724229
0.0724217
0.0724226
0.072427
0.0724355
0.072448
0.072464
0.0724827
0.0725031
0.0725245
0.0725466
0.0725691
0.0725918
0.0726145
0.0726369
0.0726582
0.0726771
0.0726918
0.0726999
0.0764387
0.0764413
0.0764471
0.0764565
0.07647
0.0764873
0.0765078
0.0765306
0.0765546
0.0765787
0.0766023
0.0766248
0.0766458
0.0766653
0.0766833
0.0766997
0.0767143
0.0767266
0.0767357
0.0767406
0.0804848
0.0804904
0.0805014
0.0805178
0.0805389
0.080564
0.0805917
0.0806208
0.0806499
0.0806778
0.0807034
0.0807263
0.0807462
0.0807631
0.0807772
0.0807888
0.0807981
0.0808054
0.0808105
0.0808131
0.0844914
0.0844993
0.0845147
0.084537
0.0845649
0.0845969
0.0846314
0.0846664
0.0847003
0.0847317
0.0847594
0.0847829
0.0848019
0.0848165
0.0848272
0.0848348
0.0848398
0.0848431
0.0848451
0.084846
0.088379
0.0883889
0.0884082
0.0884357
0.0884697
0.0885082
0.0885488
0.0885894
0.0886279
0.0886627
0.0886925
0.0887165
0.0887347
0.0887473
0.0887551
0.0887591
0.0887605
0.0887604
0.0887598
0.0887594
0.0920614
0.0920732
0.0920959
0.0921281
0.0921677
0.0922121
0.0922585
0.0923044
0.0923472
0.0923852
0.0924168
0.0924415
0.092459
0.0924698
0.0924749
0.0924757
0.0924738
0.0924708
0.0924679
0.0924663
0.0954482
0.0954615
0.0954874
0.095524
0.0955686
0.0956184
0.0956702
0.0957208
0.0957676
0.0958085
0.0958419
0.0958671
0.0958839
0.0958931
0.0958958
0.0958937
0.0958888
0.0958831
0.0958783
0.0958756
0.0984481
0.0984629
0.0984916
0.0985319
0.0985812
0.0986358
0.0986922
0.0987472
0.0987975
0.098841
0.098876
0.0989016
0.0989178
0.0989254
0.0989259
0.0989212
0.0989136
0.0989055
0.0988989
0.0988952
0.100974
0.10099
0.101021
0.101065
0.101118
0.101176
0.101237
0.101295
0.101349
0.101394
0.101431
0.101457
0.101472
0.101478
0.101477
0.10147
0.10146
0.10145
0.101442
0.101437
0.102947
0.102964
0.102996
0.103043
0.103099
0.103161
0.103224
0.103286
0.103342
0.103389
0.103426
0.103452
0.103467
0.103472
0.103469
0.103461
0.103449
0.103437
0.103428
0.103422
0.104301
0.104319
0.104353
0.104401
0.10446
0.104524
0.10459
0.104653
0.10471
0.104759
0.104797
0.104823
0.104838
0.104842
0.104838
0.104828
0.104814
0.104801
0.104791
0.104785
0.104992
0.10501
0.105044
0.105093
0.105153
0.105218
0.105285
0.105349
0.105407
0.105457
0.105495
0.105521
0.105535
0.105539
0.105534
0.105524
0.10551
0.105496
0.105485
0.10548
0.0540942
0.0540282
0.0539343
0.0538442
0.0537689
0.0537115
0.0536708
0.0536449
0.0536331
0.0536329
0.0536431
0.0536629
0.0536947
0.0537414
0.053803
0.0538782
0.0539658
0.0540641
0.054163
0.0542325
0.054786
0.0547142
0.054618